Title: **.subckt nmos
Date: Wed Mar 31 18:05:04  2021
Plotname: DC transfer characteristic
Flags: real
No. Variables: 11
No. Points: 1267
Variables:
	0	v(v-sweep)	voltage
	1	i(@m.xm1.msky130_fd_pr__nfet_01v8[id])	current
	2	v(m.xm1.msky130_fd_pr__nfet_01v8#body)	voltage
	3	v(m.xm1.msky130_fd_pr__nfet_01v8#dbody)	voltage
	4	v(m.xm1.msky130_fd_pr__nfet_01v8#sbody)	voltage
	5	v(vd)	voltage
	6	i(vd)	current
	7	v(vg)	voltage
	8	i(vg)	current
	9	v(vss)	voltage
	10	i(vss)	current
Values:
 0	0.000000000000000e+00
	0.000000000000000e+00
	2.359168674418057e-36
	3.324890392733323e-36
	3.752615630520848e-36
	0.000000000000000e+00
	7.760373947339948e-38
	0.000000000000000e+00
	0.000000000000000e+00
	0.000000000000000e+00
	-1.044048714879764e-53

 1	1.000000000000000e-02
	4.289851024516507e-15
	1.313163502297950e-13
	3.282908755761873e-13
	6.565817511319759e-14
	1.000000000000000e-02
	-1.532107773982716e-14
	0.000000000000000e+00
	0.000000000000000e+00
	0.000000000000000e+00
	1.083388190998126e-17

 2	2.000000000000000e-02
	7.575301751212558e-15
	2.595075246130351e-13
	6.487688115359570e-13
	1.297537623031483e-13
	2.000000000000000e-02
	-2.832456491574931e-14
	0.000000000000000e+00
	0.000000000000000e+00
	0.000000000000000e+00
	1.133880567878495e-17

 3	3.000000000000000e-02
	9.999840871891449e-15
	3.875092753666321e-13
	9.687731884216181e-13
	1.937546376782782e-13
	3.000000000000000e-02
	-4.099498518428391e-14
	0.000000000000000e+00
	0.000000000000000e+00
	0.000000000000000e+00
	5.597718689655048e-18

 4	4.000000000000000e-02
	1.175529600209427e-14
	5.147351006952841e-13
	1.286837751744910e-12
	2.573675503409424e-13
	4.000000000000000e-02
	-5.292988269900434e-14
	0.000000000000000e+00
	0.000000000000000e+00
	0.000000000000000e+00
	4.221361039572388e-18

 5	5.000000000000000e-02
	1.304748779276870e-14
	6.413855703039037e-13
	1.603463925768116e-12
	3.206927851435957e-13
	5.000000000000000e-02
	-6.433742427702782e-14
	0.000000000000000e+00
	0.000000000000000e+00
	0.000000000000000e+00
	2.090914295293823e-17

 6	6.000000000000000e-02
	1.404954184627320e-14
	7.676094084426270e-13
	1.919023521116576e-12
	3.838047042113049e-13
	6.000000000000000e-02
	-7.538414337204813e-14
	0.000000000000000e+00
	0.000000000000000e+00
	0.000000000000000e+00
	7.415115310598404e-17

 7	7.000000000000001e-02
	1.488019663818013e-14
	8.935168954879850e-13
	2.233792238731620e-12
	4.467584477323348e-13
	7.000000000000001e-02
	-8.637535131583718e-14
	0.000000000000000e+00
	0.000000000000000e+00
	0.000000000000000e+00
	-1.380303457782905e-17

 8	8.000000000000000e-02
	1.561109597703869e-14
	1.019189805336548e-12
	2.547974513354674e-12
	5.095949026549696e-13
	8.000000000000000e-02
	-9.708900350346994e-14
	0.000000000000000e+00
	0.000000000000000e+00
	0.000000000000000e+00
	5.727690510150015e-17

 9	9.000000000000000e-02
	1.628321223685189e-14
	1.144688774072181e-12
	2.861721935195401e-12
	5.723443870211415e-13
	9.000000000000000e-02
	-1.078581668423340e-13
	0.000000000000000e+00
	0.000000000000000e+00
	0.000000000000000e+00
	1.473254690861788e-19

 10	9.999999999999999e-02
	1.691992491060323e-14
	1.270058763899460e-12
	3.175146909765243e-12
	6.350293819331381e-13
	9.999999999999999e-02
	-1.184607967275042e-13
	0.000000000000000e+00
	0.000000000000000e+00
	0.000000000000000e+00
	6.382930079972216e-17

 11	1.100000000000000e-01
	1.753491621090126e-14
	1.395333114699716e-12
	3.488332786767525e-12
	6.976665573316242e-13
	1.100000000000000e-01
	-1.292299600663682e-13
	0.000000000000000e+00
	0.000000000000000e+00
	0.000000000000000e+00
	-6.839467317898349e-17

 12	1.200000000000000e-01
	1.813649370434259e-14
	1.520536548296479e-12
	3.801341370761074e-12
	7.602682741283648e-13
	1.200000000000000e-01
	-1.396660564978447e-13
	0.000000000000000e+00
	0.000000000000000e+00
	0.000000000000000e+00
	1.133610770933944e-16

 13	1.300000000000000e-01
	1.872990619001655e-14
	1.645687396145480e-12
	4.114218490385215e-12
	8.228436980512244e-13
	1.300000000000000e-01
	-1.503241975342462e-13
	0.000000000000000e+00
	0.000000000000000e+00
	0.000000000000000e+00
	6.070035485209126e-17

 14	1.400000000000000e-01
	1.931860049225975e-14
	1.770799251186931e-12
	4.426998127990483e-12
	8.853996255703100e-13
	1.400000000000000e-01
	-1.609823385706477e-13
	0.000000000000000e+00
	0.000000000000000e+00
	0.000000000000000e+00
	2.020245759343245e-19

 15	1.500000000000000e-01
	1.990492265650546e-14
	1.895882192708936e-12
	4.739705481797137e-12
	9.479410963296731e-13
	1.500000000000000e-01
	-1.715294573045867e-13
	0.000000000000000e+00
	0.000000000000000e+00
	0.000000000000000e+00
	4.604077720901023e-17

 16	1.600000000000000e-01
	2.049052231918599e-14
	2.020943694594778e-12
	5.052359236513381e-12
	1.010471847270955e-12
	1.600000000000000e-01
	-1.821875983409882e-13
	0.000000000000000e+00
	0.000000000000000e+00
	0.000000000000000e+00
	-2.158044507877700e-17

 17	1.700000000000000e-01
	2.107659395051272e-14
	2.145989298796508e-12
	5.364973247019342e-12
	1.072994649370181e-12
	1.700000000000000e-01
	-1.928457393773897e-13
	0.000000000000000e+00
	0.000000000000000e+00
	0.000000000000000e+00
	-9.000151344947181e-17

 18	1.800000000000000e-01
	2.166402556389214e-14
	2.271023114721688e-12
	5.677557786833932e-12
	1.135511557331132e-12
	1.800000000000000e-01
	-2.033928581113287e-13
	0.000000000000000e+00
	0.000000000000000e+00
	0.000000000000000e+00
	-4.698335942894439e-17

 19	1.900000000000000e-01
	2.225349323040599e-14
	2.396048189533196e-12
	5.990120473864341e-12
	1.198024094735247e-12
	1.900000000000000e-01
	-2.139399768452677e-13
	0.000000000000000e+00
	0.000000000000000e+00
	0.000000000000000e+00
	-2.628441367771303e-18

 20	2.000000000000000e-01
	2.284552286569259e-14
	2.521066782729862e-12
	6.302666956857644e-12
	1.260533391331941e-12
	2.000000000000000e-01
	-2.247091401841317e-13
	0.000000000000000e+00
	0.000000000000000e+00
	0.000000000000000e+00
	-1.782746886463009e-16

 21	2.100000000000000e-01
	2.344053167618948e-14
	2.646080569750501e-12
	6.615201424410880e-12
	1.323040284840622e-12
	2.100000000000000e-01
	-2.351452366156082e-13
	0.000000000000000e+00
	0.000000000000000e+00
	0.000000000000000e+00
	-1.825934740917464e-17

 22	2.200000000000001e-01
	2.403885661820375e-14
	2.771090792948150e-12
	6.927726982406643e-12
	1.385545396437808e-12
	2.200000000000001e-01
	-2.458033776520097e-13
	0.000000000000000e+00
	0.000000000000000e+00
	0.000000000000000e+00
	-7.725758541884613e-17

 23	2.300000000000001e-01
	2.464077436301796e-14
	2.896098373538822e-12
	7.240245933884959e-12
	1.448049186731506e-12
	2.300000000000001e-01
	-2.562394740834861e-13
	0.000000000000000e+00
	0.000000000000000e+00
	0.000000000000000e+00
	8.917017573814168e-17

 24	2.400000000000001e-01
	2.524651557613818e-14
	3.021103994612521e-12
	7.552759986570845e-12
	1.510551997266717e-12
	2.400000000000001e-01
	-2.668976151198876e-13
	0.000000000000000e+00
	0.000000000000000e+00
	0.000000000000000e+00
	3.722003891834650e-17

 25	2.500000000000001e-01
	2.585627531209347e-14
	3.146108162686659e-12
	7.865270406757832e-12
	1.573054081302147e-12
	2.500000000000001e-01
	-2.773337115513641e-13
	0.000000000000000e+00
	0.000000000000000e+00
	0.000000000000000e+00
	2.112167898938478e-16

 26	2.600000000000001e-01
	2.647022070501598e-14
	3.271111253348487e-12
	8.177778133414040e-12
	1.635555626631423e-12
	2.600000000000001e-01
	-2.879918525877656e-13
	0.000000000000000e+00
	0.000000000000000e+00
	0.000000000000000e+00
	1.672683999266426e-16

 27	2.700000000000001e-01
	2.708849674174691e-14
	3.396113545099340e-12
	8.490283862792809e-12
	1.698056772505211e-12
	2.700000000000001e-01
	-2.988720382290921e-13
	0.000000000000000e+00
	0.000000000000000e+00
	0.000000000000000e+00
	-9.445786403522385e-17

 28	2.800000000000001e-01
	2.771123065711200e-14
	3.521115244450480e-12
	8.802788111172299e-12
	1.760557622179143e-12
	2.800000000000001e-01
	-3.095301792654936e-13
	0.000000000000000e+00
	0.000000000000000e+00
	0.000000000000000e+00
	-1.297290364148670e-16

 29	2.900000000000001e-01
	2.833853531777186e-14
	3.646116504531876e-12
	9.115291261377426e-12
	1.823058252218202e-12
	2.900000000000001e-01
	-3.201883203018951e-13
	0.000000000000000e+00
	0.000000000000000e+00
	0.000000000000000e+00
	-1.604646050793249e-16

 30	3.000000000000001e-01
	2.897051186058428e-14
	3.771117438890784e-12
	9.427793597276334e-12
	1.885558719396018e-12
	3.000000000000001e-01
	-3.306244167333716e-13
	0.000000000000000e+00
	0.000000000000000e+00
	0.000000000000000e+00
	3.549025553480121e-17

 31	3.100000000000001e-01
	2.960725177178220e-14
	3.896118131723519e-12
	9.740295329359811e-12
	1.948059065810748e-12
	3.100000000000001e-01
	-3.415046023746982e-13
	0.000000000000000e+00
	0.000000000000000e+00
	0.000000000000000e+00
	-2.079000474094732e-16

 32	3.200000000000001e-01
	3.024883853648686e-14
	4.021118645462417e-12
	1.005279661370869e-11
	2.010559322678558e-12
	3.200000000000001e-01
	-3.519406988061746e-13
	0.000000000000000e+00
	0.000000000000000e+00
	0.000000000000000e+00
	-2.368614503904635e-18

 33	3.300000000000001e-01
	3.089534896696393e-14
	4.146119026401610e-12
	1.036529756605831e-11
	2.073059513146517e-12
	3.300000000000001e-01
	-3.625988398425761e-13
	0.000000000000000e+00
	0.000000000000000e+00
	0.000000000000000e+00
	-1.396874472737829e-17

 34	3.400000000000001e-01
	3.154685427302809e-14
	4.271119308868624e-12
	1.067779827222749e-11
	2.135559654378386e-12
	3.400000000000001e-01
	-3.734790254839027e-13
	0.000000000000000e+00
	0.000000000000000e+00
	0.000000000000000e+00
	-2.426264820631438e-16

 35	3.500000000000001e-01
	3.220342093793415e-14
	4.396119518317628e-12
	1.099029879585163e-11
	2.198059759101249e-12
	3.500000000000001e-01
	-3.839151219153791e-13
	0.000000000000000e+00
	0.000000000000000e+00
	0.000000000000000e+00
	-2.213949214769678e-17

 36	3.600000000000002e-01
	3.286511143608236e-14
	4.521119673623112e-12
	1.130279918411698e-11
	2.260559836752353e-12
	3.600000000000002e-01
	-3.947953075567057e-13
	0.000000000000000e+00
	0.000000000000000e+00
	0.000000000000000e+00
	-2.406222103217739e-16

 37	3.700000000000002e-01
	3.353198482688870e-14
	4.646119788780690e-12
	1.161529947201257e-11
	2.323059894329504e-12
	3.700000000000002e-01
	-4.054534485931072e-13
	0.000000000000000e+00
	0.000000000000000e+00
	0.000000000000000e+00
	-2.318806427451271e-16

 38	3.800000000000002e-01
	3.420409724952953e-14
	4.771119874168234e-12
	1.192779968548306e-11
	2.385559937021638e-12
	3.800000000000002e-01
	-4.158895450245836e-13
	0.000000000000000e+00
	0.000000000000000e+00
	0.000000000000000e+00
	4.142179988194407e-18

 39	3.900000000000002e-01
	3.488150233504368e-14
	4.896119937481022e-12
	1.224029984376667e-11
	2.448059968676394e-12
	3.900000000000002e-01
	-4.272138198757602e-13
	0.000000000000000e+00
	0.000000000000000e+00
	0.000000000000000e+00
	-6.427225200856828e-16

 40	4.000000000000002e-01
	3.556425155653746e-14
	5.021119984425189e-12
	1.255279996112872e-11
	2.510559992146840e-12
	4.000000000000002e-01
	-4.374278717023117e-13
	0.000000000000000e+00
	0.000000000000000e+00
	0.000000000000000e+00
	-1.740213690445326e-16

 41	4.100000000000002e-01
	3.625239452219551e-14
	5.146120019231867e-12
	1.286530004814706e-11
	2.573060009548541e-12
	4.100000000000002e-01
	-4.480860127387132e-13
	0.000000000000000e+00
	0.000000000000000e+00
	0.000000000000000e+00
	-1.440166546882328e-16

 42	4.200000000000002e-01
	3.694597922563536e-14
	5.271120045038489e-12
	1.317780011266525e-11
	2.635560022450214e-12
	4.200000000000002e-01
	-4.583000645652646e-13
	0.000000000000000e+00
	0.000000000000000e+00
	0.000000000000000e+00
	3.355182872955693e-16

 43	4.300000000000002e-01
	3.764505226072321e-14
	5.396120064171488e-12
	1.349030016049939e-11
	2.698060032015076e-12
	4.300000000000002e-01
	-4.694022948115162e-13
	0.000000000000000e+00
	0.000000000000000e+00
	0.000000000000000e+00
	-6.763739266265575e-17

 44	4.400000000000002e-01
	3.834965900442107e-14
	5.521120078355937e-12
	1.380280019596215e-11
	2.760560039105662e-12
	4.400000000000002e-01
	-4.805045250577678e-13
	0.000000000000000e+00
	0.000000000000000e+00
	0.000000000000000e+00
	-4.652597598949664e-16

 45	4.500000000000002e-01
	3.905984377516674e-14
	5.646120088870993e-12
	1.411530022225143e-11
	2.823060044361552e-12
	4.500000000000002e-01
	-4.907185768843192e-13
	0.000000000000000e+00
	0.000000000000000e+00
	0.000000000000000e+00
	3.087402606922258e-17

 46	4.600000000000002e-01
	3.977564996854295e-14
	5.771120096665159e-12
	1.442780024173848e-11
	2.885560048256997e-12
	4.600000000000002e-01
	-5.018208071305708e-13
	0.000000000000000e+00
	0.000000000000000e+00
	0.000000000000000e+00
	-3.555494027074315e-16

 47	4.700000000000003e-01
	4.049712017795894e-14
	5.896120102441759e-12
	1.474030025618161e-11
	2.948060051143660e-12
	4.700000000000003e-01
	-5.124789481669723e-13
	0.000000000000000e+00
	0.000000000000000e+00
	0.000000000000000e+00
	-2.922197669994641e-16

 48	4.800000000000003e-01
	4.122429629526990e-14
	6.021120106722324e-12
	1.505280026688465e-11
	3.010560053282304e-12
	4.800000000000003e-01
	-5.231370892033738e-13
	0.000000000000000e+00
	0.000000000000000e+00
	0.000000000000000e+00
	-2.231843430795258e-16

 49	4.900000000000003e-01
	4.195721960424022e-14
	6.146120109893560e-12
	1.536530027481436e-11
	3.073060054866285e-12
	4.900000000000003e-01
	-5.337952302397753e-13
	0.000000000000000e+00
	0.000000000000000e+00
	0.000000000000000e+00
	-1.484018162467310e-16

 50	5.000000000000002e-01
	4.269593085696626e-14
	6.271120112242234e-12
	1.567780028068764e-11
	3.135560056038984e-12
	5.000000000000002e-01
	-5.440092820663267e-13
	0.000000000000000e+00
	0.000000000000000e+00
	0.000000000000000e+00
	3.762577983864378e-16

 51	5.100000000000002e-01
	4.344047034494638e-14
	6.396120113980972e-12
	1.599030028503604e-11
	3.198060056906716e-12
	5.100000000000002e-01
	-5.551115123125783e-13
	0.000000000000000e+00
	0.000000000000000e+00
	0.000000000000000e+00
	1.856717977796281e-17

 52	5.200000000000002e-01
	4.419087796056917e-14
	6.521120115267469e-12
	1.630280028825377e-11
	3.260560057548326e-12
	5.200000000000002e-01
	-5.657696533489798e-13
	0.000000000000000e+00
	0.000000000000000e+00
	0.000000000000000e+00
	1.108338624814759e-16

 53	5.300000000000002e-01
	4.494719325150749e-14
	6.646120116218653e-12
	1.661530029063310e-11
	3.323060058022280e-12
	5.300000000000002e-01
	-5.764277943853813e-13
	0.000000000000000e+00
	0.000000000000000e+00
	0.000000000000000e+00
	2.090081936731353e-16

 54	5.400000000000003e-01
	4.570945546819877e-14
	6.771120116921262e-12
	1.692780029239077e-11
	3.385560058371947e-12
	5.400000000000003e-01
	-5.875300246316328e-13
	0.000000000000000e+00
	0.000000000000000e+00
	0.000000000000000e+00
	-1.309597791226061e-16

 55	5.500000000000003e-01
	4.647770360710132e-14
	6.896120117439654e-12
	1.724030029368754e-11
	3.448060058629505e-12
	5.500000000000003e-01
	-5.986322548778844e-13
	0.000000000000000e+00
	0.000000000000000e+00
	0.000000000000000e+00
	-4.649418444517114e-16

 56	5.600000000000003e-01
	4.725197645012160e-14
	7.021120117821609e-12
	1.755280029464263e-11
	3.510560058818846e-12
	5.600000000000003e-01
	-6.092903959142859e-13
	0.000000000000000e+00
	0.000000000000000e+00
	0.000000000000000e+00
	-3.488100067398693e-16

 57	5.700000000000003e-01
	4.803231259645390e-14
	7.146120118102657e-12
	1.786530029534448e-11
	3.573060058957732e-12
	5.700000000000003e-01
	-6.195044477408373e-13
	0.000000000000000e+00
	0.000000000000000e+00
	0.000000000000000e+00
	2.174743360421602e-16

 58	5.800000000000003e-01
	4.881875049555733e-14
	7.271120118309295e-12
	1.817780029585876e-11
	3.635560059059414e-12
	5.800000000000003e-01
	-6.306066779870889e-13
	0.000000000000000e+00
	0.000000000000000e+00
	0.000000000000000e+00
	-9.831799408832130e-17

 59	5.900000000000003e-01
	4.961132847306722e-14
	7.396120118461386e-12
	1.849030029623428e-11
	3.698060059133823e-12
	5.900000000000003e-01
	-6.412648190234904e-13
	0.000000000000000e+00
	0.000000000000000e+00
	0.000000000000000e+00
	3.611895962583743e-17

 60	6.000000000000003e-01
	5.041008475591251e-14
	7.521120118573994e-12
	1.880280029650738e-11
	3.760560059188489e-12
	6.000000000000003e-01
	-6.519229600598919e-13
	0.000000000000000e+00
	0.000000000000000e+00
	0.000000000000000e+00
	1.767342154426338e-16

 61	6.100000000000003e-01
	5.121505749545798e-14
	7.646120118658747e-12
	1.911530029670524e-11
	3.823060059229228e-12
	6.100000000000003e-01
	-6.630251903061435e-13
	0.000000000000000e+00
	0.000000000000000e+00
	0.000000000000000e+00
	-1.205232842308417e-16

 62	6.200000000000003e-01
	5.202628478641444e-14
	7.771120118724952e-12
	1.942780029684838e-11
	3.885560059260693e-12
	6.200000000000003e-01
	-6.741274205523951e-13
	0.000000000000000e+00
	0.000000000000000e+00
	0.000000000000000e+00
	-4.115262341442521e-16

 63	6.300000000000003e-01
	5.284380468591571e-14
	7.896120118780449e-12
	1.974030029695246e-11
	3.948060059286804e-12
	6.300000000000003e-01
	-6.838973831690964e-13
	0.000000000000000e+00
	0.000000000000000e+00
	0.000000000000000e+00
	6.360310529348631e-16

 64	6.400000000000003e-01
	5.366765522964453e-14
	8.021120118832360e-12
	2.005280029702975e-11
	4.010560059311122e-12
	6.400000000000003e-01
	-6.954437026251981e-13
	0.000000000000000e+00
	0.000000000000000e+00
	0.000000000000000e+00
	-8.643785580223473e-17

 65	6.500000000000004e-01
	5.449787444641713e-14
	8.146120118887784e-12
	2.036530029709026e-11
	4.073060059337198e-12
	6.500000000000004e-01
	-7.065459328714496e-13
	0.000000000000000e+00
	0.000000000000000e+00
	0.000000000000000e+00
	-3.584488818754185e-16

 66	6.600000000000004e-01
	5.533450037409967e-14
	8.271120118954415e-12
	2.067780029714263e-11
	4.135560059368875e-12
	6.600000000000004e-01
	-7.176481631177012e-13
	0.000000000000000e+00
	0.000000000000000e+00
	0.000000000000000e+00
	-6.240531968652724e-16

 67	6.700000000000004e-01
	5.617757106945614e-14
	8.396120119041249e-12
	2.099030029719492e-11
	4.198060059410655e-12
	6.700000000000004e-01
	-7.274181257344026e-13
	0.000000000000000e+00
	0.000000000000000e+00
	0.000000000000000e+00
	4.490548859732867e-16

 68	6.800000000000004e-01
	5.702712461996084e-14
	8.521120119159308e-12
	2.130280029725526e-11
	4.260560059468047e-12
	6.800000000000004e-01
	-7.389644451905042e-13
	0.000000000000000e+00
	0.000000000000000e+00
	0.000000000000000e+00
	-2.477110143423882e-16

 69	6.900000000000004e-01
	5.788319915561498e-14
	8.646120119322509e-12
	2.161530029733257e-11
	4.323060059548011e-12
	6.900000000000004e-01
	-7.496225862269057e-13
	0.000000000000000e+00
	0.000000000000000e+00
	0.000000000000000e+00
	-4.977750811474338e-17

 70	7.000000000000004e-01
	5.874583285857182e-14
	8.771120119548643e-12
	2.192780029743719e-11
	4.385560059659440e-12
	7.000000000000004e-01
	-7.602807272633072e-13
	0.000000000000000e+00
	0.000000000000000e+00
	0.000000000000000e+00
	1.547151678497036e-16

 71	7.100000000000004e-01
	5.961506396958946e-14
	8.896120119860543e-12
	2.224030029758161e-11
	4.448060059813754e-12
	7.100000000000004e-01
	-7.713829575095588e-13
	0.000000000000000e+00
	0.000000000000000e+00
	0.000000000000000e+00
	-7.828395460608254e-17

 72	7.200000000000004e-01
	6.049093079893968e-14
	9.021120120287513e-12
	2.255280029778128e-11
	4.510560060025601e-12
	7.200000000000004e-01
	-7.820410985459603e-13
	0.000000000000000e+00
	0.000000000000000e+00
	0.000000000000000e+00
	1.394418556780104e-16

 73	7.300000000000004e-01
	6.137347173149506e-14
	9.146120120866977e-12
	2.286530029805551e-11
	4.573060060313697e-12
	7.300000000000004e-01
	-7.931433287922118e-13
	0.000000000000000e+00
	0.000000000000000e+00
	0.000000000000000e+00
	-8.024743461691824e-17

 74	7.400000000000004e-01
	6.226272523603305e-14
	9.271120121646479e-12
	2.317780029842850e-11
	4.635560060701810e-12
	7.400000000000004e-01
	-8.042455590384634e-13
	0.000000000000000e+00
	0.000000000000000e+00
	0.000000000000000e+00
	-2.932241449530443e-16

 75	7.500000000000004e-01
	6.315872986966850e-14
	9.396120122686046e-12
	2.349030029893059e-11
	4.698060061219957e-12
	7.500000000000004e-01
	-8.149037000748649e-13
	0.000000000000000e+00
	0.000000000000000e+00
	0.000000000000000e+00
	-5.536050595741532e-17

 76	7.600000000000005e-01
	6.406152428371524e-14
	9.521120124060973e-12
	2.380280029959967e-11
	4.760560061905784e-12
	7.600000000000005e-01
	-8.260059303211165e-13
	0.000000000000000e+00
	0.000000000000000e+00
	0.000000000000000e+00
	-2.547962830001453e-16

 77	7.700000000000005e-01
	6.497114723117618e-14
	9.646120125865076e-12
	2.411530030048283e-11
	4.823060062806198e-12
	7.700000000000005e-01
	-8.371081605673680e-13
	0.000000000000000e+00
	0.000000000000000e+00
	0.000000000000000e+00
	-4.474035094718508e-16

 78	7.800000000000005e-01
	6.588763756982051e-14
	9.771120128214531e-12
	2.442780030163827e-11
	4.885560063979289e-12
	7.800000000000005e-01
	-8.473222123939195e-13
	0.000000000000000e+00
	0.000000000000000e+00
	0.000000000000000e+00
	2.550350967463381e-16

 79	7.900000000000005e-01
	6.681103426687630e-14
	9.896120131252267e-12
	2.474030030313759e-11
	4.948060065496521e-12
	7.900000000000005e-01
	-8.588685318500211e-13
	0.000000000000000e+00
	0.000000000000000e+00
	0.000000000000000e+00
	-3.678875406483184e-16

 80	8.000000000000005e-01
	6.774137640605568e-14
	1.002112013515311e-11
	2.505280030506824e-11
	5.010560067445306e-12
	8.000000000000005e-01
	-8.695266728864226e-13
	0.000000000000000e+00
	0.000000000000000e+00
	0.000000000000000e+00
	-9.568628169927705e-17

 81	8.100000000000005e-01
	6.867870318748033e-14
	1.014612014012963e-11
	2.536530030753658e-11
	5.073060069931926e-12
	8.100000000000005e-01
	-8.801848139228241e-13
	0.000000000000000e+00
	0.000000000000000e+00
	0.000000000000000e+00
	1.834996625187981e-16

 82	8.200000000000005e-01
	6.962305393628888e-14
	1.027112014643884e-11
	2.567780031067114e-11
	5.135560073084897e-12
	8.200000000000005e-01
	-8.917311333789257e-13
	0.000000000000000e+00
	0.000000000000000e+00
	0.000000000000000e+00
	-4.184687922738435e-16

 83	8.300000000000005e-01
	7.057446810088284e-14
	1.039612015438986e-11
	2.599030031462654e-11
	5.198060077058769e-12
	8.300000000000005e-01
	-9.023892744153272e-13
	0.000000000000000e+00
	0.000000000000000e+00
	0.000000000000000e+00
	-1.251953459102396e-16

 84	8.400000000000005e-01
	7.153298526170251e-14
	1.052112016435249e-11
	2.630280031958767e-11
	5.260560082038448e-12
	8.400000000000005e-01
	-9.121592370320286e-13
	0.000000000000000e+00
	0.000000000000000e+00
	0.000000000000000e+00
	1.063359596842397e-15

 85	8.500000000000005e-01
	7.249864513116877e-14
	1.064612017676699e-11
	2.661530032577469e-11
	5.323060088244061e-12
	8.500000000000005e-01
	-9.245937349078304e-13
	0.000000000000000e+00
	0.000000000000000e+00
	0.000000000000000e+00
	-4.054779127851176e-16

 86	8.600000000000005e-01
	7.347148755606465e-14
	1.077112019215497e-11
	2.692780033344842e-11
	5.385560095936415e-12
	8.600000000000005e-01
	-9.343636975245317e-13
	0.000000000000000e+00
	0.000000000000000e+00
	0.000000000000000e+00
	7.974025110559844e-16

 87	8.700000000000006e-01
	7.445155252371025e-14
	1.089612021113156e-11
	2.724030034291641e-11
	5.448060105423075e-12
	8.700000000000006e-01
	-9.459100169806334e-13
	0.000000000000000e+00
	0.000000000000000e+00
	0.000000000000000e+00
	2.311487817905510e-16

 88	8.800000000000006e-01
	7.543888016068385e-14
	1.102112023441903e-11
	2.755280035453984e-11
	5.510560117065172e-12
	8.800000000000006e-01
	-9.574563364367350e-13
	0.000000000000000e+00
	0.000000000000000e+00
	0.000000000000000e+00
	-3.278421057122907e-16

 89	8.900000000000006e-01
	7.643351073931650e-14
	1.114612026286177e-11
	2.786530036874089e-11
	5.573060131284907e-12
	8.900000000000006e-01
	-9.681144774731365e-13
	0.000000000000000e+00
	0.000000000000000e+00
	0.000000000000000e+00
	8.648574354916206e-18

 90	9.000000000000006e-01
	7.743548467545637e-14
	1.127112029744294e-11
	2.817780038601114e-11
	5.635560148573854e-12
	9.000000000000006e-01
	-9.787726185095380e-13
	0.000000000000000e+00
	0.000000000000000e+00
	0.000000000000000e+00
	3.524828574659177e-16

 91	9.100000000000006e-01
	7.844484253595687e-14
	1.139612033930273e-11
	2.849030040692069e-11
	5.698060169502115e-12
	9.100000000000006e-01
	-9.894307595459395e-13
	0.000000000000000e+00
	0.000000000000000e+00
	0.000000000000000e+00
	7.037013560826198e-16

 92	9.200000000000006e-01
	7.946162503553394e-14
	1.152112038975846e-11
	2.880280043212820e-11
	5.760560194728341e-12
	9.200000000000006e-01
	-1.000977079002041e-12
	0.000000000000000e+00
	0.000000000000000e+00
	0.000000000000000e+00
	1.741664179128177e-16

 93	9.300000000000006e-01
	8.048587304353519e-14
	1.164612045032644e-11
	2.911530046239184e-11
	5.823060225010696e-12
	9.300000000000006e-01
	-1.012523398458143e-12
	0.000000000000000e+00
	0.000000000000000e+00
	0.000000000000000e+00
	-3.479026073426529e-16

 94	9.400000000000006e-01
	8.151762758168823e-14
	1.177112052274592e-11
	2.942780049858123e-11
	5.885560261218802e-12
	9.400000000000006e-01
	-1.024069717914244e-12
	0.000000000000000e+00
	0.000000000000000e+00
	0.000000000000000e+00
	-8.624646283862700e-16

 95	9.500000000000006e-01
	8.255692982956591e-14
	1.189612060900507e-11
	2.974030054169044e-11
	5.948060304346738e-12
	9.500000000000006e-01
	-1.033839680530946e-12
	0.000000000000000e+00
	0.000000000000000e+00
	0.000000000000000e+00
	4.068784532813587e-16

 96	9.600000000000006e-01
	8.360382112455694e-14
	1.202112071136906e-11
	3.005280059285208e-11
	6.010560355527099e-12
	9.600000000000006e-01
	-1.044497821567347e-12
	0.000000000000000e+00
	0.000000000000000e+00
	0.000000000000000e+00
	7.956328065562650e-16

 97	9.700000000000006e-01
	8.465834296290930e-14
	1.214612083241051e-11
	3.036530065335243e-11
	6.073060416046186e-12
	9.700000000000006e-01
	-1.056044141023449e-12
	0.000000000000000e+00
	0.000000000000000e+00
	0.000000000000000e+00
	3.038400305901064e-16

 98	9.800000000000006e-01
	8.572053700258400e-14
	1.227112097504226e-11
	3.067780072464795e-11
	6.135560487360424e-12
	9.800000000000006e-01
	-1.067590460479551e-12
	0.000000000000000e+00
	0.000000000000000e+00
	0.000000000000000e+00
	-1.802796804413131e-16

 99	9.900000000000007e-01
	8.679044506482936e-14
	1.239612114255253e-11
	3.099030080838271e-11
	6.198060571113924e-12
	9.900000000000007e-01
	-1.079136779935652e-12
	0.000000000000000e+00
	0.000000000000000e+00
	0.000000000000000e+00
	-6.566843737614744e-16

 100	1.000000000000001e+00
	8.786810913504153e-14
	1.252112133864274e-11
	3.130280090640746e-11
	6.260560669157394e-12
	1.000000000000001e+00
	-1.089794920972054e-12
	0.000000000000000e+00
	0.000000000000000e+00
	0.000000000000000e+00
	-2.371534962167167e-16

 101	1.010000000000001e+00
	8.895357136353089e-14
	1.264612156746784e-11
	3.161530102079964e-11
	6.323060783568306e-12
	1.010000000000001e+00
	-1.100453062008455e-12
	0.000000000000000e+00
	0.000000000000000e+00
	0.000000000000000e+00
	1.901768490003697e-16

 102	1.020000000000001e+00
	9.004687406885948e-14
	1.277112183367939e-11
	3.192780115388506e-11
	6.385560916672447e-12
	1.020000000000001e+00
	-1.111999381464557e-12
	0.000000000000000e+00
	0.000000000000000e+00
	0.000000000000000e+00
	-2.628292531850517e-16

 103	1.030000000000001e+00
	9.114805973788027e-14
	1.289612214247149e-11
	3.224030130826074e-11
	6.448061071066860e-12
	1.030000000000001e+00
	-1.121769344081258e-12
	0.000000000000000e+00
	0.000000000000000e+00
	0.000000000000000e+00
	1.068406150943711e-15

 104	1.040000000000001e+00
	9.225717102702489e-14
	1.302112249962944e-11
	3.255280148681935e-11
	6.510561249644198e-12
	1.040000000000001e+00
	-1.133315663537360e-12
	0.000000000000000e+00
	0.000000000000000e+00
	0.000000000000000e+00
	6.312122704299772e-16

 105	1.050000000000001e+00
	9.337425076422005e-14
	1.314612291158146e-11
	3.286530169277499e-11
	6.573061455618574e-12
	1.050000000000001e+00
	-1.144861982993461e-12
	0.000000000000000e+00
	0.000000000000000e+00
	0.000000000000000e+00
	2.019890297297096e-16

 106	1.060000000000001e+00
	9.449934194943003e-14
	1.327112338545336e-11
	3.317780192969058e-11
	6.635561692552889e-12
	1.060000000000001e+00
	-1.156408302449563e-12
	0.000000000000000e+00
	0.000000000000000e+00
	0.000000000000000e+00
	-2.192202861603532e-16

 107	1.070000000000001e+00
	9.563248775512402e-14
	1.339612392912624e-11
	3.349030220150665e-11
	6.698061964387695e-12
	1.070000000000001e+00
	-1.167066443485965e-12
	0.000000000000000e+00
	0.000000000000000e+00
	0.000000000000000e+00
	2.558062301728516e-16

 108	1.080000000000001e+00
	9.677373153018053e-14
	1.352112455129737e-11
	3.380280251257185e-11
	6.760562275471622e-12
	1.080000000000001e+00
	-1.179500941361766e-12
	0.000000000000000e+00
	0.000000000000000e+00
	0.000000000000000e+00
	-1.037422983602148e-15

 109	1.090000000000001e+00
	9.792311679754197e-14
	1.364612526154421e-11
	3.411530286767491e-11
	6.823062630593408e-12
	1.090000000000001e+00
	-1.189270903978468e-12
	0.000000000000000e+00
	0.000000000000000e+00
	0.000000000000000e+00
	3.420280770570338e-16

 110	1.100000000000001e+00
	9.908068725807775e-14
	1.377112607039165e-11
	3.442780327207825e-11
	6.885563035015491e-12
	1.100000000000001e+00
	-1.201705401854269e-12
	0.000000000000000e+00
	0.000000000000000e+00
	0.000000000000000e+00
	-9.348669841859925e-16

 111	1.110000000000001e+00
	1.002464867888024e-13
	1.389612698938252e-11
	3.474030373155332e-11
	6.948063494509290e-12
	1.110000000000001e+00
	-1.213251721310371e-12
	0.000000000000000e+00
	0.000000000000000e+00
	0.000000000000000e+00
	-1.315350149802823e-15

 112	1.120000000000001e+00
	1.014205594481987e-13
	1.402112803115145e-11
	3.505280425241742e-11
	7.010564015392118e-12
	1.120000000000001e+00
	-1.223909862346773e-12
	0.000000000000000e+00
	0.000000000000000e+00
	0.000000000000000e+00
	-7.993768559254598e-16

 113	1.130000000000001e+00
	1.026029494722007e-13
	1.414612920950196e-11
	3.536530484157231e-11
	7.073064604565742e-12
	1.130000000000001e+00
	-1.234568003383174e-12
	0.000000000000000e+00
	0.000000000000000e+00
	0.000000000000000e+00
	-2.750807341790889e-16

 114	1.140000000000001e+00