Title: **.subckt nmos
Date: Wed Mar 31 18:05:57  2021
Plotname: DC transfer characteristic
Flags: real
No. Variables: 11
No. Points: 1267
Variables:
	0	v(v-sweep)	voltage
	1	i(@m.xm1.msky130_fd_pr__nfet_01v8[id])	current
	2	v(m.xm1.msky130_fd_pr__nfet_01v8#body)	voltage
	3	v(m.xm1.msky130_fd_pr__nfet_01v8#dbody)	voltage
	4	v(m.xm1.msky130_fd_pr__nfet_01v8#sbody)	voltage
	5	v(vd)	voltage
	6	i(vd)	current
	7	v(vg)	voltage
	8	i(vg)	current
	9	v(vss)	voltage
	10	i(vss)	current
Values:
 0	0.000000000000000e+00
	0.000000000000000e+00
	5.231980714860609e-37
	4.933578404502583e-37
	1.076236374007925e-36
	0.000000000000000e+00
	1.458891913625213e-36
	0.000000000000000e+00
	0.000000000000000e+00
	0.000000000000000e+00
	6.786316646718466e-53

 1	1.000000000000000e-02
	2.816071612999191e-14
	1.312465157002231e-13
	3.281162892521205e-13
	6.562325784854866e-14
	1.000000000000000e-02
	-4.197336922473482e-14
	0.000000000000000e+00
	0.000000000000000e+00
	0.000000000000000e+00
	-5.699318101462854e-18

 2	2.000000000000000e-02
	5.015144812263344e-14
	2.594024079736859e-13
	6.485060199373648e-13
	1.297012039836929e-13
	2.000000000000000e-02
	-7.091549569793187e-14
	0.000000000000000e+00
	0.000000000000000e+00
	0.000000000000000e+00
	-1.185493623845826e-17

 3	3.000000000000000e-02
	6.688331009023221e-14
	3.873709709139835e-13
	9.684274272897035e-13
	1.936854854522471e-13
	3.000000000000000e-02
	-9.789391519632318e-14
	0.000000000000000e+00
	0.000000000000000e+00
	0.000000000000000e+00
	-2.092743123263441e-17

 4	4.000000000000000e-02
	7.955828728155643e-14
	5.145721871789251e-13
	1.286430467953663e-12
	2.572860935831127e-13
	4.000000000000000e-02
	-1.207645095036014e-13
	0.000000000000000e+00
	0.000000000000000e+00
	0.000000000000000e+00
	-4.044724541777580e-17

 5	5.000000000000000e-02
	8.945166293363673e-14
	6.412044089442411e-13
	1.603011022368564e-12
	3.206022044641589e-13
	5.000000000000000e-02
	-1.407207683712386e-13
	0.000000000000000e+00
	0.000000000000000e+00
	0.000000000000000e+00
	2.724728082130626e-17

 6	6.000000000000000e-02
	9.762599668853799e-14
	7.674147161421216e-13
	1.918536790364880e-12
	3.837073580614842e-13
	6.000000000000000e-02
	-1.589839371263224e-13
	0.000000000000000e+00
	0.000000000000000e+00
	0.000000000000000e+00
	3.523685703843150e-17

 7	7.000000000000001e-02
	1.048046605604556e-13
	8.933121698724725e-13
	2.233280424692373e-12
	4.466560849250437e-13
	7.000000000000001e-02
	-1.763034163104749e-13
	0.000000000000000e+00
	0.000000000000000e+00
	0.000000000000000e+00
	-3.378215620019737e-17

 8	8.000000000000000e-02
	1.114219381758154e-13
	1.018977639927217e-12
	2.547444099830849e-12
	5.094888199508000e-13
	8.000000000000000e-02
	-1.929012505286209e-13
	0.000000000000000e+00
	0.000000000000000e+00
	0.000000000000000e+00
	3.889884596010457e-17

 9	9.000000000000000e-02
	1.177255331233302e-13
	1.144471091988448e-12
	2.861177729985543e-12
	5.722355459798007e-13
	9.000000000000000e-02
	-2.092215289906108e-13
	0.000000000000000e+00
	0.000000000000000e+00
	0.000000000000000e+00
	6.169149695005247e-17

 10	9.999999999999999e-02
	1.238567040409346e-13
	1.269836991151767e-12
	3.174592477895454e-12
	6.349184955598458e-13
	9.999999999999999e-02
	-2.253752739989068e-13
	0.000000000000000e+00
	0.000000000000000e+00
	0.000000000000000e+00
	6.838933988998825e-17

 11	1.100000000000000e-01
	1.298982153017092e-13
	1.395108308687700e-12
	3.487770771736901e-12
	6.975541543261990e-13
	1.100000000000000e-01
	-2.414735078559715e-13
	0.000000000000000e+00
	0.000000000000000e+00
	0.000000000000000e+00
	3.337214704010355e-17

 12	1.200000000000000e-01
	1.359004602853512e-13
	1.520309493091536e-12
	3.800773732748103e-12
	7.601547465265041e-13
	1.200000000000000e-01
	-2.573496971081113e-13
	0.000000000000000e+00
	0.000000000000000e+00
	0.000000000000000e+00
	1.755226314145085e-16

 13	1.300000000000000e-01
	1.418954194359527e-13
	1.645458673143640e-12
	4.113646682879974e-12
	8.227293365509439e-13
	1.300000000000000e-01
	-2.733369086627135e-13
	0.000000000000000e+00
	0.000000000000000e+00
	0.000000000000000e+00
	1.952046321470984e-16

 14	1.400000000000000e-01
	1.479042251252857e-13
	1.770569291498608e-12
	4.426423228769006e-12
	8.852846457268164e-13
	1.400000000000000e-01
	-2.896571871247033e-13
	0.000000000000000e+00
	0.000000000000000e+00
	0.000000000000000e+00
	-1.074186715472512e-16

 15	1.500000000000000e-01
	1.539413805194582e-13
	1.895651316006401e-12
	4.739128290040100e-12
	9.478256579791018e-13
	1.500000000000000e-01
	-3.057554209817681e-13
	0.000000000000000e+00
	0.000000000000000e+00
	0.000000000000000e+00
	-1.619351732513436e-16

 16	1.600000000000000e-01
	1.600171929739925e-13
	2.020712137917914e-12
	5.051780344820492e-12
	1.010356068933248e-12
	1.600000000000000e-01
	-3.218536548388329e-13
	0.000000000000000e+00
	0.000000000000000e+00
	0.000000000000000e+00
	-1.794908222961524e-16

 17	1.700000000000000e-01
	1.661392266021176e-13
	2.145757237912528e-12
	5.364393094808638e-12
	1.072878618928945e-12
	1.700000000000000e-01
	-3.378408663934351e-13
	0.000000000000000e+00
	0.000000000000000e+00
	0.000000000000000e+00
	-4.106074863959259e-17

 18	1.800000000000000e-01
	1.723131983911943e-13
	2.270790679963573e-12
	5.676976699937858e-12
	1.135395339952857e-12
	1.800000000000000e-01
	-3.539391002504999e-13
	0.000000000000000e+00
	0.000000000000000e+00
	0.000000000000000e+00
	3.735254802049323e-17

 19	1.900000000000000e-01
	1.785435482752880e-13
	2.395815477544029e-12
	5.989538693890607e-12
	1.197907738741476e-12
	1.900000000000000e-01
	-3.702593787124897e-13
	0.000000000000000e+00
	0.000000000000000e+00
	0.000000000000000e+00
	-5.059222287476168e-17

 20	2.000000000000000e-01
	1.848338121659862e-13
	2.520833865171360e-12
	6.302084662960547e-12
	1.260416932553533e-12
	2.000000000000000e-01
	-3.863576125695545e-13
	0.000000000000000e+00
	0.000000000000000e+00
	0.000000000000000e+00
	1.429088215096684e-16

 21	2.100000000000000e-01
	1.911868723970082e-13
	2.645847499760481e-12
	6.614618749434954e-12
	1.322923749846485e-12
	2.100000000000000e-01
	-4.030109579389318e-13
	0.000000000000000e+00
	0.000000000000000e+00
	0.000000000000000e+00
	-1.562855491517261e-16

 22	2.200000000000001e-01
	1.976051298509771e-13
	2.770857609928781e-12
	6.927144024857314e-12
	1.385428804929026e-12
	2.200000000000001e-01
	-4.192202140984591e-13
	0.000000000000000e+00
	0.000000000000000e+00
	0.000000000000000e+00
	5.352455931823495e-17

 23	2.300000000000001e-01
	2.040906247810364e-13
	2.895865106707168e-12
	7.239662766804888e-12
	1.447932553316613e-12
	2.300000000000001e-01
	-4.356515148629114e-13
	0.000000000000000e+00
	0.000000000000000e+00
	0.000000000000000e+00
	1.083184677606010e-16

 24	2.400000000000001e-01
	2.106451232785361e-13
	3.020870665633300e-12
	7.552176664121825e-12
	1.510435332778071e-12
	2.400000000000001e-01
	-4.523048602322888e-13
	0.000000000000000e+00
	0.000000000000000e+00
	0.000000000000000e+00
	9.916310537715050e-18

 25	2.500000000000001e-01
	2.172701802338240e-13
	3.145874787624457e-12
	7.864686969101325e-12
	1.572937393772043e-12
	2.500000000000001e-01
	-4.689582056016661e-13
	0.000000000000000e+00
	0.000000000000000e+00
	0.000000000000000e+00
	-1.804234369480219e-17

 26	2.600000000000001e-01
	2.239671859287168e-13
	3.270877844115338e-12
	8.177194610330132e-12
	1.635438922015876e-12
	2.600000000000001e-01
	-4.856115509710435e-13
	0.000000000000000e+00
	0.000000000000000e+00
	0.000000000000000e+00
	2.586250165525533e-17

 27	2.700000000000001e-01
	2.307374010069126e-13
	3.395880110528124e-12
	8.489700276363704e-12
	1.697940055220663e-12
	2.700000000000001e-01
	-5.022648963404208e-13
	0.000000000000000e+00
	0.000000000000000e+00
	0.000000000000000e+00
	1.429135240609604e-16

 28	2.800000000000001e-01
	2.375819830842848e-13
	3.520881791090858e-12
	8.802204477772144e-12
	1.760440895500424e-12
	2.800000000000001e-01
	-5.193623309196482e-13
	0.000000000000000e+00
	0.000000000000000e+00
	0.000000000000000e+00
	-1.098045322114054e-16

 29	2.900000000000001e-01
	2.445020072367391e-13
	3.645883037240482e-12
	9.114707593147810e-12
	1.822941518573631e-12
	2.900000000000001e-01
	-5.360156762890256e-13
	0.000000000000000e+00
	0.000000000000000e+00
	0.000000000000000e+00
	1.569739433997964e-16

 30	3.000000000000001e-01
	2.514984819558959e-13
	3.770883961268855e-12
	9.427209903220348e-12
	1.885441980586212e-12
	3.000000000000001e-01
	-5.531131108682530e-13
	0.000000000000000e+00
	0.000000000000000e+00
	0.000000000000000e+00
	5.608800616319912e-17

 31	3.100000000000001e-01
	2.585723617012323e-13
	3.895884646441408e-12
	9.739711616153330e-12
	1.947942323170884e-12
	3.100000000000001e-01
	-5.702105454474804e-13
	0.000000000000000e+00
	0.000000000000000e+00
	0.000000000000000e+00
	3.258798664059833e-17

 32	3.200000000000001e-01
	2.657245568695008e-13
	4.020885154500208e-12
	1.005221288630194e-11
	2.010442577198680e-12
	3.200000000000001e-01
	-5.877520692365579e-13
	0.000000000000000e+00
	0.000000000000000e+00
	0.000000000000000e+00
	-3.566999889002084e-16

 33	3.300000000000001e-01
	2.729559417858732e-13
	4.145885531227560e-12
	1.036471382812192e-11
	2.072942765560752e-12
	3.300000000000001e-01
	-6.046274592108603e-13
	0.000000000000000e+00
	0.000000000000000e+00
	0.000000000000000e+00
	-6.749080778362477e-19

 34	3.400000000000001e-01
	2.802673611561715e-13
	4.270885810571457e-12
	1.067721452648326e-11
	2.135442905231097e-12
	3.400000000000001e-01
	-6.219469383950127e-13
	0.000000000000000e+00
	0.000000000000000e+00
	0.000000000000000e+00
	-8.712373856224720e-18

 35	3.500000000000001e-01
	2.876596353199687e-13
	4.395886017704639e-12
	1.098971504431782e-11
	2.197943008796085e-12
	3.500000000000001e-01
	-6.392664175791651e-13
	0.000000000000000e+00
	0.000000000000000e+00
	0.000000000000000e+00
	6.409917700721215e-17

 36	3.600000000000002e-01
	2.951335645560143e-13
	4.520886171292922e-12
	1.130221542829013e-11
	2.260443085588623e-12
	3.600000000000002e-01
	-6.570299859731676e-13
	0.000000000000000e+00
	0.000000000000000e+00
	0.000000000000000e+00
	-2.255276933229393e-16

 37	3.700000000000002e-01
	3.026899326389024e-13
	4.645886285177182e-12
	1.161471571300238e-11
	2.322943142529151e-12
	3.700000000000002e-01
	-6.741274205523951e-13
	0.000000000000000e+00
	0.000000000000000e+00
	0.000000000000000e+00
	2.334149216428374e-16

 38	3.800000000000002e-01
	3.103295097853370e-13
	4.770886369620546e-12
	1.192721592411240e-11
	2.385443184749232e-12
	3.800000000000002e-01
	-6.921130335513226e-13
	0.000000000000000e+00
	0.000000000000000e+00
	0.000000000000000e+00
	-1.126141748165955e-16

 39	3.900000000000002e-01
	3.180530551205533e-13
	4.895886432233220e-12
	1.223971608064568e-11
	2.447943216053967e-12
	3.900000000000002e-01
	-7.096545573404001e-13
	0.000000000000000e+00
	0.000000000000000e+00
	0.000000000000000e+00
	6.941238089980792e-17

 40	4.000000000000002e-01
	3.258613187455115e-13
	5.020886478658244e-12
	1.255221619670984e-11
	2.510443239264878e-12
	4.000000000000002e-01
	-7.274181257344026e-13
	0.000000000000000e+00
	0.000000000000000e+00
	0.000000000000000e+00
	1.141113264212619e-16

 41	4.100000000000002e-01
	3.337550434868013e-13
	5.145886513079972e-12
	1.286471628276576e-11
	2.572943256474142e-12
	4.100000000000002e-01
	-7.456257833382551e-13
	0.000000000000000e+00
	0.000000000000000e+00
	0.000000000000000e+00
	-1.998187818392193e-16

 42	4.200000000000002e-01
	3.417349663733770e-13
	5.270886538601156e-12
	1.317721634657032e-11
	2.635443269233134e-12
	4.200000000000002e-01
	-7.629452625224076e-13
	0.000000000000000e+00
	0.000000000000000e+00
	0.000000000000000e+00
	4.606269628428081e-16

 43	4.300000000000002e-01
	3.498018198994014e-13
	5.395886557522498e-12
	1.348971639387528e-11
	2.697943278692205e-12
	4.300000000000002e-01
	-7.811529201262601e-13
	0.000000000000000e+00
	0.000000000000000e+00
	0.000000000000000e+00
	3.198243992858589e-16

 44	4.400000000000002e-01
	3.579563331092794e-13
	5.520886571550001e-12
	1.380221642894563e-11
	2.760443285704357e-12
	4.400000000000002e-01
	-7.993605777301127e-13
	0.000000000000000e+00
	0.000000000000000e+00
	0.000000000000000e+00
	2.666811280757012e-16

 45	4.500000000000002e-01
	3.661992325194148e-13
	5.645886581948678e-12
	1.411471645494392e-11
	2.822943290902097e-12
	4.500000000000002e-01
	-8.184564137536654e-13
	0.000000000000000e+00
	0.000000000000000e+00
	0.000000000000000e+00
	-5.862546528836065e-16

 46	4.600000000000002e-01
	3.745312429221800e-13
	5.770886589656563e-12
	1.442721647421521e-11
	2.885443294754441e-12
	4.600000000000002e-01
	-8.357758929378178e-13
	0.000000000000000e+00
	0.000000000000000e+00
	0.000000000000000e+00
	4.262771829234515e-16

 47	4.700000000000003e-01
	3.829530880829805e-13
	5.895886595369198e-12
	1.473971648849834e-11
	2.947943297609161e-12
	4.700000000000003e-01
	-8.544276397515205e-13
	0.000000000000000e+00
	0.000000000000000e+00
	0.000000000000000e+00
	1.963759875948761e-16

 48	4.800000000000003e-01
	3.914654913376612e-13
	6.020886599602360e-12
	1.505221649908275e-11
	3.010443299724145e-12
	4.800000000000003e-01
	-8.735234757750732e-13
	0.000000000000000e+00
	0.000000000000000e+00
	0.000000000000000e+00
	-3.870564420621631e-16

 49	4.900000000000003e-01
	4.000691761231026e-13
	6.145886602738514e-12
	1.536471650692451e-11
	3.072943301290625e-12
	4.900000000000003e-01
	-8.917311333789257e-13
	0.000000000000000e+00
	0.000000000000000e+00
	0.000000000000000e+00
	8.970990978441975e-18

 50	5.000000000000002e-01
	4.087648664383677e-13
	6.270886605061287e-12
	1.567721651273262e-11
	3.135443302450415e-12
	5.000000000000002e-01
	-9.103828801926284e-13
	0.000000000000000e+00
	0.000000000000000e+00
	0.000000000000000e+00
	5.291467891823450e-17

 51	5.100000000000002e-01
	4.175532872487715e-13
	6.395886606781056e-12
	1.598971651703282e-11
	3.197943303308703e-12
	5.100000000000002e-01
	-9.290346270063310e-13
	0.000000000000000e+00
	0.000000000000000e+00
	0.000000000000000e+00
	1.895888137483138e-16

 52	5.200000000000002e-01
	4.264351648407586e-13
	6.520886608053902e-12
	1.630221652021499e-11
	3.260443303943531e-12
	5.200000000000002e-01
	-9.476863738200336e-13
	0.000000000000000e+00
	0.000000000000000e+00
	0.000000000000000e+00
	4.197196943944393e-16

 53	5.300000000000002e-01
	4.354112271432015e-13
	6.645886608995720e-12
	1.661471652256832e-11
	3.322943304412844e-12
	5.300000000000002e-01
	-9.667822098435863e-13
	0.000000000000000e+00
	0.000000000000000e+00
	0.000000000000000e+00
	2.999460491367507e-16

 54	5.400000000000003e-01
	4.444822040007912e-13
	6.770886609692714e-12
	1.692721652430737e-11
	3.385443304759747e-12
	5.400000000000003e-01
	-9.863221350769891e-13
	0.000000000000000e+00
	0.000000000000000e+00
	0.000000000000000e+00
	-1.690022704537076e-16

 55	5.500000000000003e-01
	4.536488274301777e-13
	6.895886610209228e-12
	1.723971652559147e-11
	3.447943305016410e-12
	5.500000000000003e-01
	-1.004973881890692e-12
	0.000000000000000e+00
	0.000000000000000e+00
	0.000000000000000e+00
	3.458743869395221e-16

 56	5.600000000000003e-01
	4.629118318355076e-13
	7.020886610593639e-12
	1.755221652653907e-11
	3.510443305207022e-12
	5.600000000000003e-01
	-1.024513807124094e-12
	0.000000000000000e+00
	0.000000000000000e+00
	0.000000000000000e+00
	6.895358988266859e-17

 57	5.700000000000003e-01
	4.722719542133971e-13
	7.145886610882855e-12
	1.786471652723852e-11
	3.572943305350037e-12
	5.700000000000003e-01
	-1.044053732357497e-12
	0.000000000000000e+00
	0.000000000000000e+00
	0.000000000000000e+00
	-1.108492424331412e-16

 58	5.800000000000003e-01
	4.817299343295611e-13
	7.270886611105838e-12
	1.817721652775617e-11
	3.635443305459936e-12
	5.800000000000003e-01
	-1.063593657590900e-12
	0.000000000000000e+00
	0.000000000000000e+00
	0.000000000000000e+00
	-1.927943420974065e-16

 59	5.900000000000003e-01
	4.912865148786033e-13
	7.395886611286429e-12
	1.848971652814236e-11
	3.697943305548639e-12
	5.900000000000003e-01
	-1.083577672034153e-12
	0.000000000000000e+00
	0.000000000000000e+00
	0.000000000000000e+00
	-6.202282226340773e-16

 60	6.000000000000003e-01
	5.009424416306793e-13
	7.520886611445806e-12
	1.880221652843618e-11
	3.760443305626736e-12
	6.000000000000003e-01
	-1.102673508057705e-12
	0.000000000000000e+00
	0.000000000000000e+00
	0.000000000000000e+00
	-6.013748292191149e-17

 61	6.100000000000003e-01
	5.106984635633716e-13
	7.645886611604755e-12
	1.911471652866916e-11
	3.822943305704619e-12
	6.100000000000003e-01
	-1.122657522500958e-12
	0.000000000000000e+00
	0.000000000000000e+00
	0.000000000000000e+00
	-2.881299835224125e-16

 62	6.200000000000003e-01
	5.205553329827698e-13
	7.770886611785964e-12
	1.942721652886832e-11
	3.885443305793633e-12
	6.200000000000003e-01
	-1.142197447734361e-12
	0.000000000000000e+00
	0.000000000000000e+00
	0.000000000000000e+00
	2.881421242433818e-17

 63	6.300000000000003e-01
	5.305138056273174e-13
	7.895886612016532e-12
	1.973971652905881e-11
	3.947943305907327e-12
	6.300000000000003e-01
	-1.162625551387464e-12
	0.000000000000000e+00
	0.000000000000000e+00
	0.000000000000000e+00
	-4.408167848725514e-16

 64	6.400000000000003e-01
	5.405746407782589e-13
	8.020886612330889e-12
	2.005221652926648e-11
	4.010443306062916e-12
	6.400000000000003e-01
	-1.182609565830717e-12
	0.000000000000000e+00
	0.000000000000000e+00
	0.000000000000000e+00
	-3.639960630677991e-16

 65	6.500000000000004e-01
	5.507386013363677e-13
	8.145886612774310e-12
	2.036471652952036e-11
	4.072943306283037e-12
	6.500000000000004e-01
	-1.202593580273970e-12
	0.000000000000000e+00
	0.000000000000000e+00
	0.000000000000000e+00
	-1.840499292999083e-16

 66	6.600000000000004e-01
	5.610064539180390e-13
	8.270886613407257e-12
	2.067721652985542e-11
	4.135443306597922e-12
	6.600000000000004e-01
	-1.222577594717222e-12
	0.000000000000000e+00
	0.000000000000000e+00
	0.000000000000000e+00
	9.978823534006089e-17

 67	6.700000000000004e-01
	5.713789689289456e-13
	8.395886614310790e-12
	2.098971653031567e-11
	4.197943307048102e-12
	6.700000000000004e-01
	-1.243005698370325e-12
	0.000000000000000e+00
	0.000000000000000e+00
	0.000000000000000e+00
	4.419962998633878e-17

 68	6.800000000000004e-01
	5.818569206343222e-13
	8.520886615593332e-12
	2.130221653095797e-11
	4.260443307687784e-12
	6.800000000000004e-01
	-1.263433802023428e-12
	0.000000000000000e+00
	0.000000000000000e+00
	0.000000000000000e+00
	9.404773411412225e-17

 69	6.900000000000004e-01
	5.924410872282948e-13
	8.645886617399036e-12
	2.161471653185631e-11
	4.322943308589051e-12
	6.900000000000004e-01
	-1.284305994886381e-12
	0.000000000000000e+00
	0.000000000000000e+00
	0.000000000000000e+00
	-1.939784621963058e-16

 70	7.000000000000004e-01
	6.031322508900662e-13
	8.770886619918217e-12
	2.192721653310728e-11
	4.385443309847055e-12
	7.000000000000004e-01
	-1.304734098539484e-12
	0.000000000000000e+00
	0.000000000000000e+00
	0.000000000000000e+00
	6.908164759876384e-17

 71	7.100000000000004e-01
	6.139311978488958e-13
	8.895886623400109e-12
	2.223971653483655e-11
	4.447943311586415e-12
	7.100000000000004e-01
	-1.325606291402437e-12
	0.000000000000000e+00
	0.000000000000000e+00
	0.000000000000000e+00
	-4.164116950997086e-18

 72	7.200000000000004e-01
	6.248387184353241e-13
	9.020886628168504e-12
	2.255221653720681e-11
	4.510443313969027e-12
	7.200000000000004e-01
	-1.346478484265390e-12
	0.000000000000000e+00
	0.000000000000000e+00
	0.000000000000000e+00
	3.116379751310614e-17

 73	7.300000000000004e-01
	6.358556071289477e-13
	9.145886634640677e-12
	2.286471654042729e-11
	4.572943317203529e-12
	7.300000000000004e-01
	-1.367794766338193e-12
	0.000000000000000e+00
	0.000000000000000e+00
	0.000000000000000e+00
	-2.682293225597891e-16

 74	7.400000000000004e-01
	6.469826626138290e-13
	9.270886643350218e-12
	2.317721654476521e-11
	4.635443321556715e-12
	7.400000000000004e-01
	-1.388666959201146e-12
	0.000000000000000e+00
	0.000000000000000e+00
	0.000000000000000e+00
	-1.336635205408604e-17

 75	7.500000000000004e-01
	6.582206878112945e-13
	9.395886654974294e-12
	2.348971655055947e-11
	4.697943327367170e-12
	7.500000000000004e-01
	-1.410427330483799e-12
	0.000000000000000e+00
	0.000000000000000e+00
	0.000000000000000e+00
	-5.357119721035866e-16

 76	7.600000000000005e-01
	6.695704899349913e-13
	9.520886670366122e-12
	2.380221655823693e-11
	4.760443335061500e-12
	7.600000000000005e-01
	-1.431743612556602e-12
	0.000000000000000e+00
	0.000000000000000e+00
	0.000000000000000e+00
	-5.021913053741790e-16

 77	7.700000000000005e-01
	6.810328805253909e-13
	9.645886690593217e-12
	2.411471656833152e-11
	4.822943345173466e-12
	7.700000000000005e-01
	-1.452615805419555e-12
	0.000000000000000e+00
	0.000000000000000e+00
	0.000000000000000e+00
	8.800723130867304e-17

 78	7.800000000000005e-01
	6.926086754899527e-13
	9.770886716982340e-12
	2.442721658150673e-11
	4.885443358366445e-12
	7.800000000000005e-01
	-1.474376176702208e-12
	0.000000000000000e+00
	0.000000000000000e+00
	0.000000000000000e+00
	-9.656803107302307e-17

 79	7.900000000000005e-01
	7.042986951383594e-13
	9.895886751171932e-12
	2.473971659858192e-11
	4.947943375459660e-12
	7.900000000000005e-01
	-1.495692458775011e-12
	0.000000000000000e+00
	0.000000000000000e+00
	0.000000000000000e+00
	2.771709122541160e-16

 80	8.000000000000005e-01
	7.161037642195203e-13
	1.002088679517290e-11
	2.505221662056257e-11
	5.010443397458566e-12
	8.000000000000005e-01
	-1.518785097687214e-12
	0.000000000000000e+00
	0.000000000000000e+00
	0.000000000000000e+00
	-1.010397158614948e-15

 81	8.100000000000005e-01
	7.280247119537432e-13
	1.014588685143884e-11
	2.536471664867556e-11
	5.072943425589955e-12
	8.100000000000005e-01
	-1.540101379760017e-12
	0.000000000000000e+00
	0.000000000000000e+00
	0.000000000000000e+00
	-4.057292464248498e-16

 82	8.200000000000005e-01
	7.400623720670458e-13
	1.027088692294653e-11
	2.567721668440932e-11
	5.135443461342220e-12
	8.200000000000005e-01
	-1.561417661832820e-12
	0.000000000000000e+00
	0.000000000000000e+00
	0.000000000000000e+00
	3.156516545117077e-16

 83	8.300000000000005e-01
	7.522175828225755e-13
	1.039588701328801e-11
	2.598971672955989e-11
	5.197943506511381e-12
	8.300000000000005e-01
	-1.582733943905623e-12
	0.000000000000000e+00
	0.000000000000000e+00
	0.000000000000000e+00
	1.154583951025832e-15

 84	8.400000000000005e-01
	7.644911870511424e-13
	1.052088712677516e-11
	2.630221678628322e-11
	5.260443563253378e-12
	8.400000000000005e-01
	-1.606714761237527e-12
	0.000000000000000e+00
	0.000000000000000e+00
	0.000000000000000e+00
	-5.526246126983593e-16

 85	8.500000000000005e-01
	7.768840321752333e-13
	1.064588726855815e-11
	2.661471685715442e-11
	5.322943634143295e-12
	8.500000000000005e-01
	-1.628919221730030e-12
	0.000000000000000e+00
	0.000000000000000e+00
	0.000000000000000e+00
	-3.642343096647791e-16

 86	8.600000000000005e-01
	7.893969702501548e-13
	1.077088744475886e-11
	2.692721694523446e-11
	5.385443722242070e-12
	8.600000000000005e-01
	-1.651123682222533e-12
	0.000000000000000e+00
	0.000000000000000e+00
	0.000000000000000e+00
	-5.574967909135552e-17

 87	8.700000000000006e-01
	8.020308579756004e-13
	1.089588766262061e-11
	2.723971705414498e-11
	5.447943831171369e-12
	8.700000000000006e-01
	-1.673328142715036e-12
	0.000000000000000e+00
	0.000000000000000e+00
	0.000000000000000e+00
	3.736862684444261e-16

 88	8.800000000000006e-01
	8.147865567354603e-13
	1.102088793067559e-11
	2.755221718815210e-11
	5.510443965197285e-12
	8.800000000000006e-01
	-1.696420781627239e-12
	0.000000000000000e+00
	0.000000000000000e+00
	0.000000000000000e+00
	3.675683842438840e-17

 89	8.900000000000006e-01
	8.276649326207277e-13
	1.114588825893121e-11
	2.786471735225953e-11
	5.572944129323522e-12
	8.900000000000006e-01
	-1.719513420539442e-12
	0.000000000000000e+00
	0.000000000000000e+00
	0.000000000000000e+00
	-1.774930581631523e-16

 90	9.000000000000006e-01
	8.406668564496961e-13
	1.127088865907691e-11
	2.817721755231198e-11
	5.635444329394793e-12
	9.000000000000006e-01
	-1.742606059451646e-12
	0.000000000000000e+00
	0.000000000000000e+00
	0.000000000000000e+00
	-2.681921354470441e-16

 91	9.100000000000006e-01
	8.537932038027012e-13
	1.139588914471266e-11
	2.848971779510946e-11
	5.697944572211096e-12
	9.100000000000006e-01
	-1.765698698363849e-12
	0.000000000000000e+00
	0.000000000000000e+00
	0.000000000000000e+00
	-2.344642690915812e-16

 92	9.200000000000006e-01
	8.670448550395382e-13
	1.152088973160096e-11
	2.880221808853320e-11
	5.760444865653672e-12
	9.200000000000006e-01
	-1.788791337276052e-12
	0.000000000000000e+00
	0.000000000000000e+00
	0.000000000000000e+00
	-7.542846880186150e-17

 93	9.300000000000006e-01
	8.804226953276688e-13
	1.164589043794332e-11
	2.911471844168396e-11
	5.822945218823277e-12
	9.300000000000006e-01
	-1.811883976188255e-12
	0.000000000000000e+00
	0.000000000000000e+00
	0.000000000000000e+00
	2.098011609428317e-16

 94	9.400000000000006e-01
	8.939276146643838e-13
	1.177089128468309e-11
	2.942721886503344e-11
	5.885445642191592e-12
	9.400000000000006e-01
	-1.834976615100459e-12
	0.000000000000000e+00
	0.000000000000000e+00
	0.000000000000000e+00
	6.221154551691381e-16

 95	9.500000000000006e-01
	9.075605079044787e-13
	1.189589229583598e-11
	2.973971937058945e-11
	5.947946147766467e-12
	9.500000000000006e-01
	-1.859845610852062e-12
	0.000000000000000e+00
	0.000000000000000e+00
	0.000000000000000e+00
	-6.139466101016095e-16

 96	9.600000000000006e-01
	9.213222747757259e-13
	1.202089349884974e-11
	3.005221997207591e-11
	6.010446749271776e-12
	9.600000000000006e-01
	-1.882938249764265e-12
	0.000000000000000e+00
	0.000000000000000e+00
	0.000000000000000e+00
	5.522946961533013e-17

 97	9.700000000000006e-01
	9.352138199099653e-13
	1.214589492499452e-11
	3.036472068512788e-11
	6.072947462342594e-12
	9.700000000000006e-01
	-1.906919067096169e-12
	0.000000000000000e+00
	0.000000000000000e+00
	0.000000000000000e+00
	-3.398568213214861e-17

 98	9.800000000000006e-01
	9.492360528619809e-13
	1.227089660978541e-11
	3.067722152750291e-11
	6.135448304736473e-12
	9.800000000000006e-01
	-1.930899884428072e-12
	0.000000000000000e+00
	0.000000000000000e+00
	0.000000000000000e+00
	7.497329737125426e-18

 99	9.900000000000007e-01
	9.633898881342185e-13
	1.239589859343864e-11
	3.098972251930908e-11
	6.197949296561516e-12
	9.900000000000007e-01
	-1.955768880179676e-12
	0.000000000000000e+00
	0.000000000000000e+00
	0.000000000000000e+00
	-7.075838033758108e-16

 100	1.000000000000001e+00
	9.776762451927744e-13
	1.252090092136282e-11
	3.130222368325075e-11
	6.260450460522041e-12
	1.000000000000001e+00
	-1.979749697511579e-12
	0.000000000000000e+00
	0.000000000000000e+00
	0.000000000000000e+00
	-4.019509596338604e-16

 101	1.010000000000001e+00
	9.920960485003332e-13
	1.264590364468676e-11
	3.161472504489230e-11
	6.322951822182440e-12
	1.010000000000001e+00
	-2.002842336423782e-12
	0.000000000000000e+00
	0.000000000000000e+00
	0.000000000000000e+00
	9.253223688022916e-16

 102	1.020000000000001e+00
	1.006650227531885e-12
	1.277090682082514e-11
	3.192722663294106e-11
	6.385453410250067e-12
	1.020000000000001e+00
	-2.028599510595086e-12
	0.000000000000000e+00
	0.000000000000000e+00
	0.000000000000000e+00
	-2.775457252923794e-16

 103	1.030000000000001e+00
	1.021339716794403e-12
	1.289591051408367e-11
	3.223972847954988e-11
	6.447955256877763e-12
	1.030000000000001e+00
	-2.053468506346690e-12
	0.000000000000000e+00
	0.000000000000000e+00
	0.000000000000000e+00
	-4.569044839138174e-16

 104	1.040000000000001e+00
	1.036165455852985e-12
	1.302091479630470e-11
	3.255223062063997e-11
	6.510457397986713e-12
	1.040000000000001e+00
	-2.077449323678593e-12
	0.000000000000000e+00
	0.000000000000000e+00
	0.000000000000000e+00
	3.881885317281560e-16

 105	1.050000000000001e+00
	1.051128389347977e-12
	1.314591974755497e-11
	3.286473309624468e-11
	6.572959873610284e-12
	1.050000000000001e+00
	-2.103206497849897e-12
	0.000000000000000e+00
	0.000000000000000e+00
	0.000000000000000e+00
	-4.058540944495937e-16

 106	1.060000000000001e+00
	1.066229467027992e-12
	1.327092545685654e-11
	3.317723595087503e-11
	6.635462728259502e-12
	1.060000000000001e+00
	-2.128075493601500e-12
	0.000000000000000e+00
	0.000000000000000e+00
	0.000000000000000e+00
	-1.735437938533096e-16

 107	1.070000000000001e+00
	1.081469643753174e-12
	1.339593202296216e-11
	3.348973923390740e-11
	6.697966011310753e-12
	1.070000000000001e+00
	-2.153832667772804e-12
	0.000000000000000e+00
	0.000000000000000e+00
	0.000000000000000e+00
	-6.902785956277811e-16

 108	1.080000000000001e+00
	1.096849879530162e-12
	1.352093955517639e-11
	3.380224299999409e-11
	6.760469777416306e-12
	1.080000000000001e+00
	-2.178701663524407e-12
	0.000000000000000e+00
	0.000000000000000e+00
	0.000000000000000e+00
	-1.787372815514487e-16

 109	1.090000000000001e+00
	1.112371139531249e-12
	1.364594817422340e-11
	3.411474730949715e-11
	6.822974086938248e-12
	1.090000000000001e+00
	-2.205347016115411e-12
	0.000000000000000e+00
	0.000000000000000e+00
	0.000000000000000e+00
	-1.302485109465626e-15

 110	1.100000000000001e+00
	1.128034394108582e-12
	1.377095801316269e-11
	3.442725222894636e-11
	6.885479006406331e-12
	1.100000000000001e+00
	-2.229327833447314e-12
	0.000000000000000e+00
	0.000000000000000e+00
	0.000000000000000e+00
	3.803456936575378e-16

 111	1.110000000000001e+00
	1.143840618827077e-12
	1.389596921835368e-11
	3.473975783152142e-11
	6.947984609000265e-12
	1.110000000000001e+00
	-2.255085007618618e-12
	0.000000000000000e+00
	0.000000000000000e+00
	0.000000000000000e+00
	4.298444486126831e-16

 112	1.120000000000001e+00
	1.159790794473863e-12
	1.402098195047018e-11
	3.505226419755923e-11
	7.010490975056957e-12
	1.120000000000001e+00
	-2.280842181789922e-12
	0.000000000000000e+00
	0.000000000000000e+00
	0.000000000000000e+00
	6.233552088780584e-16

 113	1.130000000000001e+00
	1.175885907086434e-12
	1.414599638556565e-11
	3.536477141508652e-11
	7.072998192603130e-12
	1.130000000000001e+00
	-2.308375712800625e-12
	0.000000000000000e+00
	0.000000000000000e+00
	0.000000000000000e+00
	-8.144857853126898e-16

 114	1.140000000000001e+00