Title: **.subckt nmos
Date: Wed Mar 31 18:06:53  2021
Plotname: DC transfer characteristic
Flags: real
No. Variables: 11
No. Points: 1267
Variables:
	0	v(v-sweep)	voltage
	1	i(@m.xm1.msky130_fd_pr__nfet_01v8[id])	current
	2	v(m.xm1.msky130_fd_pr__nfet_01v8#body)	voltage
	3	v(m.xm1.msky130_fd_pr__nfet_01v8#dbody)	voltage
	4	v(m.xm1.msky130_fd_pr__nfet_01v8#sbody)	voltage
	5	v(vd)	voltage
	6	i(vd)	current
	7	v(vg)	voltage
	8	i(vg)	current
	9	v(vss)	voltage
	10	i(vss)	current
Values:
 0	0.000000000000000e+00
	0.000000000000000e+00
	3.181910477928171e-36
	4.733715394530177e-36
	4.812016039254337e-36
	0.000000000000000e+00
	-1.219898172623570e-37
	0.000000000000000e+00
	0.000000000000000e+00
	0.000000000000000e+00
	-3.132146144639292e-53

 1	1.000000000000000e-02
	5.369540998968490e-16
	1.313861847593667e-13
	3.284654619001400e-13
	6.569309237796022e-14
	1.000000000000000e-02
	-1.110223024625157e-14
	0.000000000000000e+00
	0.000000000000000e+00
	0.000000000000000e+00
	1.579629344931310e-17

 2	2.000000000000000e-02
	9.425045818105113e-16
	2.596126412523862e-13
	6.490316031343716e-13
	1.298063206227869e-13
	2.000000000000000e-02
	-2.173261570703744e-14
	0.000000000000000e+00
	0.000000000000000e+00
	0.000000000000000e+00
	-2.109982386134823e-17

 3	3.000000000000000e-02
	1.235394077989039e-15
	3.876475798192839e-13
	9.691189495532968e-13
	1.938237899045551e-13
	3.000000000000000e-02
	-3.225197886536080e-14
	0.000000000000000e+00
	0.000000000000000e+00
	0.000000000000000e+00
	-4.778400074982356e-18

 4	4.000000000000000e-02
	1.440793178735655e-15
	5.148980142116478e-13
	1.287245035535878e-12
	2.574490070990662e-13
	4.000000000000000e-02
	-4.263256414560601e-14
	0.000000000000000e+00
	0.000000000000000e+00
	0.000000000000000e+00
	7.017239137817992e-20

 5	5.000000000000000e-02
	1.585703276152769e-15
	6.415667316635726e-13
	1.603916829167353e-12
	3.207833658233651e-13
	5.000000000000000e-02
	-5.295763827461997e-14
	0.000000000000000e+00
	0.000000000000000e+00
	0.000000000000000e+00
	-4.659646247828015e-17

 6	6.000000000000000e-02
	1.692771238876415e-15
	7.678041007431391e-13
	1.919510251867927e-12
	3.839020503614903e-13
	6.000000000000000e-02
	-6.317169010117141e-14
	0.000000000000000e+00
	0.000000000000000e+00
	0.000000000000000e+00
	-5.459079936947671e-17

 7	7.000000000000001e-02
	1.777465788592267e-15
	8.937216211035059e-13
	2.234304052770498e-12
	4.468608105400198e-13
	7.000000000000001e-02
	-7.333023077649159e-14
	0.000000000000000e+00
	0.000000000000000e+00
	0.000000000000000e+00
	-5.503529557464125e-17

 8	8.000000000000000e-02
	1.849078325696143e-15
	1.019401970745888e-12
	2.548504926878105e-12
	5.097009853595601e-13
	8.000000000000000e-02
	-8.337774914934926e-14
	0.000000000000000e+00
	0.000000000000000e+00
	0.000000000000000e+00
	2.348684063094642e-17

 9	9.000000000000000e-02
	1.912897918312243e-15
	1.144906456155924e-12
	2.862266140404842e-12
	5.724532280629290e-13
	9.000000000000000e-02
	-9.353628982466944e-14
	0.000000000000000e+00
	0.000000000000000e+00
	0.000000000000000e+00
	-3.087540870238008e-17

 10	9.999999999999999e-02
	1.971928287014931e-15
	1.270280536647165e-12
	3.175701341634592e-12
	6.351402683069028e-13
	9.999999999999999e-02
	-1.035838081975271e-13
	0.000000000000000e+00
	0.000000000000000e+00
	0.000000000000000e+00
	1.056302700932040e-17

 11	1.100000000000000e-01
	2.027918671333389e-15
	1.395557920711744e-12
	3.488894801797686e-12
	6.977789603375467e-13
	1.100000000000000e-01
	-1.136868377216160e-13
	0.000000000000000e+00
	0.000000000000000e+00
	0.000000000000000e+00
	-1.428538702786056e-17

 12	1.200000000000000e-01
	2.081925780829406e-15
	1.520763603501436e-12
	3.801909008773559e-12
	7.603818017307478e-13
	1.200000000000000e-01
	-1.235678226407799e-13
	0.000000000000000e+00
	0.000000000000000e+00
	0.000000000000000e+00
	1.751914270461972e-16

 13	1.300000000000000e-01
	2.134613730598518e-15
	1.645916119147334e-12
	4.114790297889949e-12
	8.229580595520527e-13
	1.300000000000000e-01
	-1.337818744673314e-13
	0.000000000000000e+00
	0.000000000000000e+00
	0.000000000000000e+00
	2.602880250209913e-17

 14	1.400000000000000e-01
	2.186416236022440e-15
	1.771029210875269e-12
	4.427573027211429e-12
	8.855146054143768e-13
	1.400000000000000e-01
	-1.437738816889578e-13
	0.000000000000000e+00
	0.000000000000000e+00
	0.000000000000000e+00
	9.487142510059756e-17

 15	1.500000000000000e-01
	2.237626793260531e-15
	1.896113069411485e-12
	4.740282673553614e-12
	9.480565346808416e-13
	1.500000000000000e-01
	-1.540989558179717e-13
	0.000000000000000e+00
	0.000000000000000e+00
	0.000000000000000e+00
	-1.722834632118975e-16

 16	1.600000000000000e-01
	2.288450508715363e-15
	2.021175251271658e-12
	5.052938128205689e-12
	1.010587625609285e-12
	1.600000000000000e-01
	-1.640909630395981e-13
	0.000000000000000e+00
	0.000000000000000e+00
	0.000000000000000e+00
	-1.084924200036562e-16

 17	1.700000000000000e-01
	2.339034915925083e-15
	2.146221359680504e-12
	5.365553399229446e-12
	1.073110679812066e-12
	1.700000000000000e-01
	-1.739719479587620e-13
	0.000000000000000e+00
	0.000000000000000e+00
	0.000000000000000e+00
	6.479574131569354e-17

 18	1.800000000000000e-01
	2.389488909215539e-15
	2.271255549479821e-12
	5.678138873729380e-12
	1.135627774710081e-12
	1.800000000000000e-01
	-1.841859997853135e-13
	0.000000000000000e+00
	0.000000000000000e+00
	0.000000000000000e+00
	-9.606690743410425e-17

 19	1.900000000000000e-01
	2.439894738643023e-15
	2.396280901522382e-12
	5.990702253837425e-12
	1.198140450729719e-12
	1.900000000000000e-01
	-1.940669847044774e-13
	0.000000000000000e+00
	0.000000000000000e+00
	0.000000000000000e+00
	7.538216680014160e-17

 20	2.000000000000000e-01
	2.490315826693492e-15
	2.521299700288380e-12
	6.303249250754064e-12
	1.260649850111076e-12
	2.000000000000000e-01
	-2.042810365310288e-13
	0.000000000000000e+00
	0.000000000000000e+00
	0.000000000000000e+00
	-8.674466985517485e-17

 21	2.100000000000000e-01
	2.540801996291090e-15
	2.646313639740539e-12
	6.615784099386104e-12
	1.323156819835513e-12
	2.100000000000000e-01
	-2.142730437526552e-13
	0.000000000000000e+00
	0.000000000000000e+00
	0.000000000000000e+00
	-2.715056514550890e-17

 22	2.200000000000001e-01
	2.591393050332163e-15
	2.771323975967539e-12
	6.928309939955246e-12
	1.385661987947371e-12
	2.200000000000001e-01
	-2.242650509742816e-13
	0.000000000000000e+00
	0.000000000000000e+00
	0.000000000000000e+00
	3.226016599488635e-17

 23	2.300000000000001e-01
	2.642121275692549e-15
	2.896331640370496e-12
	7.240829100964279e-12
	1.448165820147208e-12
	2.300000000000001e-01
	-2.342570581959080e-13
	0.000000000000000e+00
	0.000000000000000e+00
	0.000000000000000e+00
	9.159432253108821e-17

 24	2.400000000000001e-01
	2.693013230459149e-15
	3.021337323591763e-12
	7.553343309019088e-12
	1.510668661756199e-12
	2.400000000000001e-01
	-2.444711100224595e-13
	0.000000000000000e+00
	0.000000000000000e+00
	0.000000000000000e+00
	-7.111089098669492e-17

 25	2.500000000000001e-01
	2.744091041126623e-15
	3.146341537748883e-12
	7.865853844413534e-12
	1.573170768833117e-12
	2.500000000000001e-01
	-2.544631172440859e-13
	0.000000000000000e+00
	0.000000000000000e+00
	0.000000000000000e+00
	-1.170316881024550e-17

 26	2.600000000000001e-01
	2.795373360657148e-15
	3.271344662581659e-12
	8.178361656497115e-12
	1.635672331247863e-12
	2.600000000000001e-01
	-2.644551244657123e-13
	0.000000000000000e+00
	0.000000000000000e+00
	0.000000000000000e+00
	4.782191628161075e-17

 27	2.700000000000001e-01
	2.846876086764712e-15
	3.396346979670581e-12
	8.490867449221062e-12
	1.698173489790682e-12
	2.700000000000001e-01
	-2.744471316873387e-13
	0.000000000000000e+00
	0.000000000000000e+00
	0.000000000000000e+00
	1.075027884422480e-16

 28	2.800000000000001e-01
	2.898612906684203e-15
	3.521348697810127e-12
	8.803371744571567e-12
	1.760674348858813e-12
	2.800000000000001e-01
	-2.844391389089651e-13
	0.000000000000000e+00
	0.000000000000000e+00
	0.000000000000000e+00
	1.673698384646442e-16

 29	2.900000000000001e-01
	2.950595717033869e-15
	3.646349971823293e-12
	9.115874929606130e-12
	1.823174985863754e-12
	2.900000000000001e-01
	-2.948752353404416e-13
	0.000000000000000e+00
	0.000000000000000e+00
	0.000000000000000e+00
	-2.166418610430571e-16

 30	3.000000000000001e-01
	3.002834950238510e-15
	3.771350916512738e-12
	9.428377291331382e-12
	1.885675458206834e-12
	3.000000000000001e-01
	-3.046451979571430e-13
	0.000000000000000e+00
	0.000000000000000e+00
	0.000000000000000e+00
	6.571033118141148e-17

 31	3.100000000000001e-01
	3.055339831547568e-15
	3.896351617005660e-12
	9.740879042565328e-12
	1.948175808451653e-12
	3.100000000000001e-01
	-3.146372051787694e-13
	0.000000000000000e+00
	0.000000000000000e+00
	0.000000000000000e+00
	1.262640308635194e-16

 32	3.200000000000001e-01
	3.108118582724682e-15
	4.021352136424655e-12
	1.005338034111445e-11
	2.010676068159508e-12
	3.200000000000001e-01
	-3.246292124003958e-13
	0.000000000000000e+00
	0.000000000000000e+00
	0.000000000000000e+00
	1.870771144994114e-16

 33	3.300000000000001e-01
	3.161178585905296e-15
	4.146352521575691e-12
	1.036588130399369e-11
	2.073176260733385e-12
	3.300000000000001e-01
	-3.350653088318722e-13
	0.000000000000000e+00
	0.000000000000000e+00
	0.000000000000000e+00
	-1.959285011478363e-16

 34	3.400000000000001e-01
	3.214526515790225e-15
	4.271352807165824e-12
	1.067838201797066e-11
	2.135676403526809e-12
	3.400000000000001e-01
	-3.450573160534987e-13
	0.000000000000000e+00
	0.000000000000000e+00
	0.000000000000000e+00
	-1.345649451129770e-16

 35	3.500000000000001e-01
	3.268168447458166e-15
	4.396353018930647e-12
	1.099088254738436e-11
	2.198176509407578e-12
	3.500000000000001e-01
	-3.550493232751251e-13
	0.000000000000000e+00
	0.000000000000000e+00
	0.000000000000000e+00
	-7.291329331994719e-17

 36	3.600000000000002e-01
	3.322109945080440e-15
	4.521353175953335e-12
	1.130338293994272e-11
	2.260676587917280e-12
	3.600000000000002e-01
	-3.650413304967515e-13
	0.000000000000000e+00
	0.000000000000000e+00
	0.000000000000000e+00
	-1.096645494334885e-17

 37	3.700000000000002e-01
	3.376356134723199e-15
	4.646353292384233e-12
	1.161588323102161e-11
	2.323176646131087e-12
	3.700000000000002e-01
	-3.752553823233029e-13
	0.000000000000000e+00
	0.000000000000000e+00
	0.000000000000000e+00
	-1.707627768144337e-16

 38	3.800000000000002e-01
	3.430911765526494e-15
	4.771353378715955e-12
	1.192838344685256e-11
	2.385676689295306e-12
	3.800000000000002e-01
	-3.852473895449293e-13
	0.000000000000000e+00
	0.000000000000000e+00
	0.000000000000000e+00
	-1.082074605341944e-16

 39	3.900000000000002e-01
	3.485781260482623e-15
	4.896353442728863e-12
	1.224088360688647e-11
	2.448176721300118e-12
	3.900000000000002e-01
	-3.952393967665557e-13
	0.000000000000000e+00
	0.000000000000000e+00
	0.000000000000000e+00
	-4.534006560613158e-17

 40	4.000000000000002e-01
	3.540968759855068e-15
	5.021353490192169e-12
	1.255338372554638e-11
	2.510676745030129e-12
	4.000000000000002e-01
	-4.050093593832571e-13
	0.000000000000000e+00
	0.000000000000000e+00
	0.000000000000000e+00
	2.398886146951111e-16

 41	4.100000000000002e-01
	3.596478156589147e-15
	5.146353525383797e-12
	1.286588381352709e-11
	2.573176762624301e-12
	4.100000000000002e-01
	-4.152234112098085e-13
	0.000000000000000e+00
	0.000000000000000e+00
	0.000000000000000e+00
	8.134900077364044e-17

 42	4.200000000000002e-01
	3.652313128224357e-15
	5.271353551475863e-12
	1.317838387875890e-11
	2.635676775668692e-12
	4.200000000000002e-01
	-4.254374630363600e-13
	0.000000000000000e+00
	0.000000000000000e+00
	0.000000000000000e+00
	-7.686576621159882e-17

 43	4.300000000000002e-01
	3.708477162369625e-15
	5.396353570820523e-12
	1.349088392712219e-11
	2.698176785339380e-12
	4.300000000000002e-01
	-4.352074256530614e-13
	0.000000000000000e+00
	0.000000000000000e+00
	0.000000000000000e+00
	2.093371993707912e-16

 44	4.400000000000002e-01
	3.764973580205167e-15
	5.521353585161918e-12
	1.380338396297732e-11
	2.760676792508435e-12
	4.400000000000002e-01
	-4.454214774796128e-13
	0.000000000000000e+00
	0.000000000000000e+00
	0.000000000000000e+00
	5.178293853218356e-17

 45	4.500000000000002e-01
	3.821805555281401e-15
	5.646353595793348e-12
	1.411588398955754e-11
	2.823176797822508e-12
	4.500000000000002e-01
	-4.556355293061642e-13
	0.000000000000000e+00
	0.000000000000000e+00
	0.000000000000000e+00
	-1.054360618629269e-16

 46	4.600000000000002e-01
	3.878976130963088e-15
	5.771353603673809e-12
	1.442838400926033e-11
	2.885676801761097e-12
	4.600000000000002e-01
	-4.654054919228656e-13
	0.000000000000000e+00
	0.000000000000000e+00
	0.000000000000000e+00
	1.817725281198227e-16

 47	4.700000000000003e-01
	3.936488234909852e-15
	5.896353609514395e-12
	1.474088402386344e-11
	2.948176804679748e-12
	4.700000000000003e-01
	-4.756195437494171e-13
	0.000000000000000e+00
	0.000000000000000e+00
	0.000000000000000e+00
	2.523327332785314e-17

 48	4.800000000000003e-01
	3.994344691885812e-15
	6.021353613842401e-12
	1.505338403468509e-11
	3.010676806842108e-12
	4.800000000000003e-01
	-4.862776847858186e-13
	0.000000000000000e+00
	0.000000000000000e+00
	0.000000000000000e+00
	-5.750509592917200e-16

 49	4.900000000000003e-01
	4.052548234966386e-15
	6.146353617048812e-12
	1.536588404270276e-11
	3.073176808443672e-12
	4.900000000000003e-01
	-4.960476474025199e-13
	0.000000000000000e+00
	0.000000000000000e+00
	0.000000000000000e+00
	-2.868097758339258e-16

 50	5.000000000000002e-01
	4.111101515491384e-15
	6.271353619423552e-12
	1.567838404864125e-11
	3.135676809629400e-12
	5.000000000000002e-01
	-5.058176100192213e-13
	0.000000000000000e+00
	0.000000000000000e+00
	0.000000000000000e+00
	1.781078534524817e-18

 51	5.100000000000002e-01
	4.170007111378754e-15
	6.396353621181603e-12
	1.599088405303801e-11
	3.198176810506783e-12
	5.100000000000002e-01
	-5.155875726359227e-13
	0.000000000000000e+00
	0.000000000000000e+00
	0.000000000000000e+00
	2.907241989301091e-16

 52	5.200000000000002e-01
	4.229267535474067e-15
	6.521353622482374e-12
	1.630338405629157e-11
	3.260676811155527e-12
	5.200000000000002e-01
	-5.262457136723242e-13
	0.000000000000000e+00
	0.000000000000000e+00
	0.000000000000000e+00
	-3.081563087489799e-16

 53	5.300000000000002e-01
	4.288885241385039e-15
	6.646353623444070e-12
	1.661588405869742e-11
	3.323176811634733e-12
	5.300000000000002e-01
	-5.360156762890256e-13
	0.000000000000000e+00
	0.000000000000000e+00
	0.000000000000000e+00
	-1.850114203852820e-17

 54	5.400000000000003e-01
	4.348862630443387e-15
	6.771353624154346e-12
	1.692838406047471e-11
	3.385676811988229e-12
	5.400000000000003e-01
	-5.462297281155770e-13
	0.000000000000000e+00
	0.000000000000000e+00
	0.000000000000000e+00
	-1.725755221448475e-16

 55	5.500000000000003e-01
	4.409202056221089e-15
	6.896353624678202e-12
	1.724088406178591e-11
	3.448176812248515e-12
	5.500000000000003e-01
	-5.559996907322784e-13
	0.000000000000000e+00
	0.000000000000000e+00
	0.000000000000000e+00
	1.178013294041199e-16

 56	5.600000000000003e-01
	4.469905829910857e-15
	7.021353625063839e-12
	1.755338406275152e-11
	3.510676812439691e-12
	5.600000000000003e-01
	-5.662137425588298e-13
	0.000000000000000e+00
	0.000000000000000e+00
	0.000000000000000e+00
	-3.554669204351357e-17

 57	5.700000000000003e-01
	4.530976224360381e-15
	7.146353625347009e-12
	1.786588406346086e-11
	3.573176812579634e-12
	5.700000000000003e-01
	-5.759837051755312e-13
	0.000000000000000e+00
	0.000000000000000e+00
	0.000000000000000e+00
	2.555611089194274e-16

 58	5.800000000000003e-01
	4.592415477902928e-15
	7.271353625554235e-12
	1.817838406398021e-11
	3.635676812681606e-12
	5.800000000000003e-01
	-5.866418462119327e-13
	0.000000000000000e+00
	0.000000000000000e+00
	0.000000000000000e+00
	-3.411406568028617e-16

 59	5.900000000000003e-01
	4.654225797799427e-15
	7.396353625705205e-12
	1.849088406435871e-11
	3.698176812755448e-12
	5.900000000000003e-01
	-5.964118088286341e-13
	0.000000000000000e+00
	0.000000000000000e+00
	0.000000000000000e+00
	-4.929294097594235e-17

 60	6.000000000000003e-01
	4.716409363337303e-15
	7.521353625814549e-12
	1.880338406463280e-11
	3.760676812808479e-12
	6.000000000000003e-01
	-6.066258606551855e-13
	0.000000000000000e+00
	0.000000000000000e+00
	0.000000000000000e+00
	-2.011611926943853e-16

 61	6.100000000000003e-01
	4.778968328890577e-15
	7.646353625893155e-12
	1.911588406482954e-11
	3.823176812846140e-12
	6.100000000000003e-01
	-6.163958232718869e-13
	0.000000000000000e+00
	0.000000000000000e+00
	0.000000000000000e+00
	9.143516298331086e-17

 62	6.200000000000003e-01
	4.841904825793684e-15
	7.771353625949152e-12
	1.942838406496902e-11
	3.885676812872495e-12
	6.200000000000003e-01
	-6.266098750984384e-13
	0.000000000000000e+00
	0.000000000000000e+00
	0.000000000000000e+00
	-5.968016166267521e-17

 63	6.300000000000003e-01
	4.905220965553603e-15
	7.896353625988655e-12
	1.974088406506618e-11
	3.948176812890605e-12
	6.300000000000003e-01
	-6.363798377151397e-13
	0.000000000000000e+00
	0.000000000000000e+00
	0.000000000000000e+00
	2.336733650568610e-16

 64	6.400000000000003e-01
	4.968918840863703e-15
	8.021353626016316e-12
	2.005338406513214e-11
	4.010676812902794e-12
	6.400000000000003e-01
	-6.465938895416912e-13
	0.000000000000000e+00
	0.000000000000000e+00
	0.000000000000000e+00
	8.331941649750496e-17

 65	6.500000000000004e-01
	5.033000528703261e-15
	8.146353626035737e-12
	2.036588406517524e-11
	4.073176812910862e-12
	6.500000000000004e-01
	-6.563638521583925e-13
	0.000000000000000e+00
	0.000000000000000e+00
	0.000000000000000e+00
	3.774384896131106e-16

 66	6.600000000000004e-01
	5.097468090697980e-15
	8.271353626049806e-12
	2.067838406520177e-11
	4.135676812916255e-12
	6.600000000000004e-01
	-6.670219931947940e-13
	0.000000000000000e+00
	0.000000000000000e+00
	0.000000000000000e+00
	-2.162349833081835e-16

 67	6.700000000000004e-01
	5.162323575918090e-15
	8.396353626060950e-12
	2.099088406521653e-11
	4.198176812920185e-12
	6.700000000000004e-01
	-6.767919558114954e-13
	0.000000000000000e+00
	0.000000000000000e+00
	0.000000000000000e+00
	7.865788637304314e-17

 68	6.800000000000004e-01
	5.227569021769263e-15
	8.521353626071346e-12
	2.130338406522329e-11
	4.260676812923741e-12
	6.800000000000004e-01
	-6.870060076380469e-13
	0.000000000000000e+00
	0.000000000000000e+00
	0.000000000000000e+00
	-7.014849334746818e-17

 69	6.900000000000004e-01
	5.293206454869986e-15
	8.646353626083102e-12
	2.161588406522505e-11
	4.323176812927977e-12
	6.900000000000004e-01
	-6.967759702547482e-13
	0.000000000000000e+00
	0.000000000000000e+00
	0.000000000000000e+00
	2.255263239727542e-16

 70	7.000000000000004e-01
	5.359237893245692e-15
	8.771353626098431e-12
	2.192838406522441e-11
	4.385676812934000e-12
	7.000000000000004e-01
	-7.061018436615996e-13
	0.000000000000000e+00
	0.000000000000000e+00
	0.000000000000000e+00
	9.656843564769933e-16

 71	7.100000000000004e-01
	5.425665346724529e-15
	8.896353626119795e-12
	2.224088406522366e-11
	4.448176812943040e-12
	7.100000000000004e-01
	-7.172040739078511e-13
	0.000000000000000e+00
	0.000000000000000e+00
	0.000000000000000e+00
	-7.011843513687203e-17

 72	7.200000000000004e-01
	5.492490817940605e-15
	9.021353626150087e-12
	2.255338406522507e-11
	4.510676812956543e-12
	7.200000000000004e-01
	-7.274181257344026e-13
	0.000000000000000e+00
	0.000000000000000e+00
	0.000000000000000e+00
	-2.173447890025434e-16

 73	7.300000000000004e-01
	5.559716303406332e-15
	9.146353626192791e-12
	2.286588406523098e-11
	4.573176812976253e-12
	7.300000000000004e-01
	-7.371880883511039e-13
	0.000000000000000e+00
	0.000000000000000e+00
	0.000000000000000e+00
	7.991808169394338e-17

 74	7.400000000000004e-01
	5.627343794973317e-15
	9.271353626252175e-12
	2.317838406524396e-11
	4.635676813004303e-12
	7.400000000000004e-01
	-7.474021401776554e-13
	0.000000000000000e+00
	0.000000000000000e+00
	0.000000000000000e+00
	-6.650625071666066e-17

 75	7.500000000000004e-01
	5.695375279125896e-15
	9.396353626333509e-12
	2.349088406526696e-11
	4.698176813043329e-12
	7.500000000000004e-01
	-7.571721027943568e-13
	0.000000000000000e+00
	0.000000000000000e+00
	0.000000000000000e+00
	2.315626201675056e-16

 76	7.600000000000005e-01
	5.763812739670109e-15
	9.521353626443309e-12
	2.380338406530351e-11
	4.760676813096586e-12
	7.600000000000005e-01
	-7.673861546209082e-13
	0.000000000000000e+00
	0.000000000000000e+00
	0.000000000000000e+00
	8.594825871807900e-17

 77	7.700000000000005e-01
	5.832658156437090e-15
	9.646353626589616e-12
	2.411588406535778e-11
	4.823176813168098e-12
	7.700000000000005e-01
	-7.771561172376096e-13
	0.000000000000000e+00
	0.000000000000000e+00
	0.000000000000000e+00
	3.848310647913189e-16

 78	7.800000000000005e-01
	5.901913507591979e-15
	9.771353626782315e-12
	2.442838406543487e-11
	4.885676813262806e-12
	7.800000000000005e-01
	-7.869260798543110e-13
	0.000000000000000e+00
	0.000000000000000e+00
	0.000000000000000e+00
	6.841238071003278e-16

 79	7.900000000000005e-01
	5.971580769139770e-15
	9.896353627033508e-12
	2.474088406554093e-11
	4.948176813386760e-12
	7.900000000000005e-01
	-7.975842208907125e-13
	0.000000000000000e+00
	0.000000000000000e+00
	0.000000000000000e+00
	9.565004243628161e-17

 80	8.000000000000005e-01
	6.041661915608031e-15
	1.002135362735793e-11
	2.505338406568338e-11
	5.010676813547330e-12
	8.000000000000005e-01
	-8.073541835074138e-13
	0.000000000000000e+00
	0.000000000000000e+00
	0.000000000000000e+00
	3.957685853179622e-16

 81	8.100000000000005e-01
	6.112158921185393e-15
	1.014635362777344e-11
	2.536588406587122e-11
	5.073176813753443e-12
	8.100000000000005e-01
	-8.171241461241152e-13
	0.000000000000000e+00
	0.000000000000000e+00
	0.000000000000000e+00
	6.963029909488018e-16

 82	8.200000000000005e-01
	6.183073759556221e-15
	1.027135362830156e-11
	2.567838406611525e-11
	5.135676814015859e-12
	8.200000000000005e-01
	-8.268941087408166e-13
	0.000000000000000e+00
	0.000000000000000e+00
	0.000000000000000e+00
	9.972552338751869e-16

 83	8.300000000000005e-01
	6.254408404325219e-15
	1.039635362896809e-11
	2.599088406642841e-11
	5.198176814347482e-12
	8.300000000000005e-01
	-8.375522497772181e-13
	0.000000000000000e+00
	0.000000000000000e+00
	0.000000000000000e+00
	4.104488690345080e-16

 84	8.400000000000005e-01
	6.326164829912160e-15
	1.052135362980381e-11
	2.630338406682609e-11
	5.260676814763699e-12
	8.400000000000005e-01
	-8.473222123939195e-13
	0.000000000000000e+00
	0.000000000000000e+00
	0.000000000000000e+00
	7.122427114780849e-16

 85	8.500000000000005e-01
	6.398345011439885e-15
	1.064635363084526e-11
	2.661588406732659e-11
	5.323176815282784e-12
	8.500000000000005e-01
	-8.579803534303210e-13
	0.000000000000000e+00
	0.000000000000000e+00
	0.000000000000000e+00
	1.262818983907733e-16

 86	8.600000000000005e-01
	6.470950925247804e-15
	1.077135363213563e-11
	2.692838406795152e-11
	5.385676815926327e-12
	8.600000000000005e-01
	-8.677503160470224e-13
	0.000000000000000e+00
	0.000000000000000e+00
	0.000000000000000e+00
	4.289252472398014e-16

 87	8.700000000000006e-01
	6.543984549732714e-15
	1.089635363372570e-11
	2.724088406872626e-11
	5.448176816719718e-12
	8.700000000000006e-01
	-8.775202786637237e-13
	0.000000000000000e+00
	0.000000000000000e+00
	0.000000000000000e+00
	7.319963187530514e-16

 88	8.800000000000006e-01
	6.617447864645785e-15
	1.102135363567494e-11
	2.755338406968058e-11
	5.510676817692700e-12
	8.800000000000006e-01
	-8.872902412804251e-13
	0.000000000000000e+00
	0.000000000000000e+00
	0.000000000000000e+00
	1.035497095061511e-15

 89	8.900000000000006e-01
	6.691342851879434e-15
	1.114635363805272e-11
	2.786588407084915e-11
	5.573176818879944e-12
	8.900000000000006e-01
	-8.979483823168266e-13
	0.000000000000000e+00
	0.000000000000000e+00
	0.000000000000000e+00
	4.512511411308473e-16

 90	9.000000000000006e-01
	6.765671496264257e-15
	1.127135364093955e-11
	2.817838407227223e-11
	5.635676820321722e-12
	9.000000000000006e-01
	-9.077183449335280e-13
	0.000000000000000e+00
	0.000000000000000e+00
	0.000000000000000e+00
	7.556172844141579e-16

 91	9.100000000000006e-01
	6.840435784961086e-15
	1.139635364442864e-11
	2.849088407399644e-11
	5.698176822064621e-12
	9.100000000000006e-01
	-9.183764859699295e-13
	0.000000000000000e+00
	0.000000000000000e+00
	0.000000000000000e+00
	1.722406763988134e-16

 92	9.200000000000006e-01
	6.915637708398640e-15
	1.152135364862731e-11
	2.880338407607543e-11
	5.760676824162316e-12
	9.200000000000006e-01
	-9.281464485866309e-13
	0.000000000000000e+00
	0.000000000000000e+00
	0.000000000000000e+00
	4.774801512078620e-16

 93	9.300000000000006e-01
	6.991279259613067e-15
	1.164635365365887e-11
	2.911588407857085e-11
	5.823176826676453e-12
	9.300000000000006e-01
	-9.396927680427325e-13
	0.000000000000000e+00
	0.000000000000000e+00
	0.000000000000000e+00
	-9.931975522913420e-16

 94	9.400000000000006e-01
	7.067362435707701e-15
	1.177135365966436e-11
	2.942838408155325e-11
	5.885676829677555e-12
	9.400000000000006e-01
	-9.494627306594339e-13
	0.000000000000000e+00
	0.000000000000000e+00
	0.000000000000000e+00
	-6.870767525526710e-16

 95	9.500000000000006e-01
	7.143889236984305e-15
	1.189635366680461e-11
	2.974088408510302e-11
	5.948176833246042e-12
	9.500000000000006e-01
	-9.601208716958354e-13
	0.000000000000000e+00
	0.000000000000000e+00
	0.000000000000000e+00
	-1.268690701941535e-15

 96	9.600000000000006e-01
	7.220861667669957e-15
	1.202135367526243e-11
	3.005338408931158e-11
	6.010676837473306e-12
	9.600000000000006e-01
	-9.698908343125368e-13
	0.000000000000000e+00
	0.000000000000000e+00
	0.000000000000000e+00
	-9.616805495188692e-16

 97	9.700000000000006e-01
	7.298281735543529e-15
	1.214635368524488e-11
	3.036588409428244e-11
	6.073176842462893e-12
	9.700000000000006e-01
	-9.796607969292381e-13
	0.000000000000000e+00
	0.000000000000000e+00
	0.000000000000000e+00
	-6.542226989228476e-16

 98	9.800000000000006e-01
	7.376151453403373e-15
	1.227135369698590e-11
	3.067838410013259e-11
	6.135676848331757e-12
	9.800000000000006e-01
	-9.894307595459395e-13
	0.000000000000000e+00
	0.000000000000000e+00
	0.000000000000000e+00
	-3.463151279982297e-16

 99	9.900000000000007e-01
	7.454472837370321e-15
	1.239635371074888e-11
	3.099088410699373e-11
	6.198176855211609e-12
	9.900000000000007e-01
	-1.000088900582341e-12
	0.000000000000000e+00
	0.000000000000000e+00
	0.000000000000000e+00
	-9.261342297876631e-16

 100	1.000000000000001e+00
	7.533247908719047e-15
	1.252135372682962e-11
	3.130338411501373e-11
	6.260676863250335e-12
	1.000000000000001e+00
	-1.009858863199042e-12
	0.000000000000000e+00
	0.000000000000000e+00
	0.000000000000000e+00
	-6.173211317853083e-16

 101	1.010000000000001e+00
	7.612478692895699e-15
	1.264635374555937e-11
	3.161588412435825e-11
	6.323176872613569e-12
	1.010000000000001e+00
	-1.018740647396044e-12
	0.000000000000000e+00
	0.000000000000000e+00
	0.000000000000000e+00
	5.801262047059199e-16

 102	1.020000000000001e+00
	7.692167220220697e-15
	1.277135376730806e-11
	3.192838413521224e-11
	6.385676883486272e-12
	1.020000000000001e+00
	-1.029398788432445e-12
	0.000000000000000e+00
	0.000000000000000e+00
	0.000000000000000e+00
	1.674565702721093e-18

 103	1.030000000000001e+00
	7.772315525829031e-15
	1.289635379248782e-11
	3.224088414778176e-11
	6.448176896074509e-12
	1.030000000000001e+00
	-1.039168751049147e-12
	0.000000000000000e+00
	0.000000000000000e+00
	0.000000000000000e+00
	3.118612619256379e-16

 104	1.040000000000001e+00
	7.852925649792805e-15
	1.302135382155657e-11
	3.255338416229577e-11
	6.510676910607242e-12
	1.040000000000001e+00
	-1.049826892085548e-12
	0.000000000000000e+00
	0.000000000000000e+00
	0.000000000000000e+00
	-2.656684876366079e-16

 105	1.050000000000001e+00
	7.933999637635393e-15
	1.314635385502195e-11
	3.286588417900810e-11
	6.573176927338291e-12
	1.050000000000001e+00
	-1.060485033121950e-12
	0.000000000000000e+00
	0.000000000000000e+00
	0.000000000000000e+00
	-8.427341974545346e-16

 106	1.060000000000001e+00
	8.015539539254156e-15
	1.327135389344535e-11
	3.317838419819945e-11
	6.635676946548349e-12
	1.060000000000001e+00
	-1.069366817318951e-12
	0.000000000000000e+00
	0.000000000000000e+00
	0.000000000000000e+00
	3.570230442247516e-16

 107	1.070000000000001e+00
	8.097547411016941e-15
	1.339635393744622e-11
	3.349088422017951e-11
	6.698176968547140e-12
	1.070000000000001e+00
	-1.080024958355352e-12
	0.000000000000000e+00
	0.000000000000000e+00
	0.000000000000000e+00
	-2.191083602539257e-16

 108	1.080000000000001e+00
	8.180025313667966e-15
	1.352135398770658e-11
	3.380338424528934e-11
	6.760676993675680e-12
	1.080000000000001e+00
	-1.089794920972054e-12
	0.000000000000000e+00
	0.000000000000000e+00
	0.000000000000000e+00
	9.340893623607115e-17

 109	1.090000000000001e+00
	8.262975314027813e-15
	1.364635404497573e-11
	3.411588427390355e-11
	6.823177022308613e-12
	1.090000000000001e+00
	-1.100453062008455e-12
	0.000000000000000e+00
	0.000000000000000e+00
	0.000000000000000e+00
	-4.817798089140302e-16

 110	1.100000000000001e+00
	8.346399484488431e-15
	1.377135411007520e-11
	3.442838430643292e-11
	6.885677054856706e-12
	1.100000000000001e+00
	-1.110223024625157e-12
	0.000000000000000e+00
	0.000000000000000e+00
	0.000000000000000e+00
	-1.683156510504089e-16

 111	1.110000000000001e+00
	8.430299902892057e-15
	1.389635418390392e-11
	3.474088434332692e-11
	6.948177091769424e-12
	1.110000000000001e+00
	-1.119992987241858e-12
	0.000000000000000e+00
	0.000000000000000e+00
	0.000000000000000e+00
	1.456251039261797e-16

 112	1.120000000000001e+00
	8.514678653028114e-15
	1.402135426744358e-11
	3.505338438507639e-11
	7.010677133537614e-12
	1.120000000000001e+00
	-1.131539306697960e-12
	0.000000000000000e+00
	0.000000000000000e+00
	0.000000000000000e+00
	-1.316312260327174e-15

 113	1.130000000000001e+00
	8.599537824722258e-15
	1.414635436176428e-11
	3.536588443221638e-11
	7.073177180696321e-12
	1.130000000000001e+00
	-1.141309269314661e-12
	0.000000000000000e+00
	0.000000000000000e+00
	0.000000000000000e+00
	-1.001411932380882e-15

 114	1.140000000000001e+00