Title: **.subckt nmos_simulation
Date: Wed Mar 31 14:55:55  2021
Plotname: DC transfer characteristic
Flags: real
No. Variables: 11
No. Points: 1267
Variables:
	0	v(v-sweep)	voltage
	1	i(@m.xm1.msky130_fd_pr__nfet_01v8[id])	current
	2	v(m.xm1.msky130_fd_pr__nfet_01v8#body)	voltage
	3	v(m.xm1.msky130_fd_pr__nfet_01v8#dbody)	voltage
	4	v(m.xm1.msky130_fd_pr__nfet_01v8#sbody)	voltage
	5	v(vd)	voltage
	6	i(vd)	current
	7	v(vg)	voltage
	8	i(vg)	current
	9	v(vss)	voltage
	10	i(vss)	current
Values:
 0	0.000000000000000e+00
	0.000000000000000e+00
	3.095150487152605e-36
	4.631359686545522e-36
	4.654091774912294e-36
	0.000000000000000e+00
	-1.230535013107066e-37
	0.000000000000000e+00
	0.000000000000000e+00
	0.000000000000000e+00
	-5.220243574398820e-53

 1	1.000000000000000e-02
	1.485633160870145e-16
	1.314161249184704e-13
	3.285403122979022e-13
	6.570806245750905e-14
	1.000000000000000e-02
	-1.068589661201713e-14
	0.000000000000000e+00
	0.000000000000000e+00
	0.000000000000000e+00
	-4.340899194491589e-18

 2	2.000000000000000e-02
	2.602343594422597e-16
	2.596577079110422e-13
	6.491442697810167e-13
	1.298288539521101e-13
	2.000000000000000e-02
	-2.103872631664672e-14
	0.000000000000000e+00
	0.000000000000000e+00
	0.000000000000000e+00
	-5.875323146011274e-18

 3	3.000000000000000e-02
	3.402940388035524e-16
	3.877068750897263e-13
	9.692671877294091e-13
	1.938534375397697e-13
	3.000000000000000e-02
	-3.133604487004504e-14
	0.000000000000000e+00
	0.000000000000000e+00
	0.000000000000000e+00
	2.079917769117059e-17

 4	4.000000000000000e-02
	3.958427985729601e-16
	5.149678601264124e-13
	1.287419650322797e-12
	2.574839300564407e-13
	4.000000000000000e-02
	-4.155009669659648e-14
	0.000000000000000e+00
	0.000000000000000e+00
	0.000000000000000e+00
	4.317491441995785e-17

 5	5.000000000000000e-02
	4.344836896302854e-16
	6.416444009765214e-13
	1.604111002449734e-12
	3.208222004798307e-13
	5.000000000000000e-02
	-5.184741524999481e-14
	0.000000000000000e+00
	0.000000000000000e+00
	0.000000000000000e+00
	-8.137947933902513e-17

 6	6.000000000000000e-02
	4.625721722517010e-16
	7.678875711765962e-13
	1.919718927951580e-12
	3.839437855782091e-13
	6.000000000000000e-02
	-6.189493362285248e-14
	0.000000000000000e+00
	0.000000000000000e+00
	0.000000000000000e+00
	-1.355752997971663e-18

 7	7.000000000000001e-02
	4.844332619294537e-16
	8.938093931202855e-13
	2.234523482812457e-12
	4.469046965483991e-13
	7.000000000000001e-02
	-7.194245199571014e-14
	0.000000000000000e+00
	0.000000000000000e+00
	0.000000000000000e+00
	4.673271988712838e-17

 8	8.000000000000000e-02
	5.026561878131190e-16
	1.019492932425604e-12
	2.548732331077406e-12
	5.097464661994067e-13
	8.000000000000000e-02
	-8.204548151979907e-14
	0.000000000000000e+00
	0.000000000000000e+00
	0.000000000000000e+00
	1.660926667615609e-17

 9	9.000000000000000e-02
	5.187107321004971e-16
	1.144999782999553e-12
	2.862499457513928e-12
	5.724998914847321e-13
	9.000000000000000e-02
	-9.214851104388799e-14
	0.000000000000000e+00
	0.000000000000000e+00
	0.000000000000000e+00
	-2.981766664144105e-17

 10	9.999999999999999e-02
	5.334295976141934e-16
	1.270375617281228e-12
	3.175939043219762e-12
	6.351878086239217e-13
	9.999999999999999e-02
	-1.022515405679769e-13
	0.000000000000000e+00
	0.000000000000000e+00
	0.000000000000000e+00
	-8.806158211532244e-17

 11	1.100000000000000e-01
	5.472966630032959e-16
	1.395654301797274e-12
	3.489135754511524e-12
	6.978271508802985e-13
	1.100000000000000e-01
	-1.123545700920658e-13
	0.000000000000000e+00
	0.000000000000000e+00
	0.000000000000000e+00
	-1.549292789644754e-16

 12	1.200000000000000e-01
	5.606036384066938e-16
	1.520860948883490e-12
	3.802152372228709e-12
	7.604304744217613e-13
	1.200000000000000e-01
	-1.221245327087672e-13
	0.000000000000000e+00
	0.000000000000000e+00
	0.000000000000000e+00
	1.049468472014734e-16

 13	1.300000000000000e-01
	5.735334914278498e-16
	1.646014179563981e-12
	4.115035448931582e-12
	8.230070897603621e-13
	1.300000000000000e-01
	-1.322275622328561e-13
	0.000000000000000e+00
	0.000000000000000e+00
	0.000000000000000e+00
	2.710563113938628e-17

 14	1.400000000000000e-01
	5.862054798306461e-16
	1.771127801496534e-12
	4.427819503764609e-12
	8.855639007249947e-13
	1.400000000000000e-01
	-1.422195694544826e-13
	0.000000000000000e+00
	0.000000000000000e+00
	0.000000000000000e+00
	5.686015308625803e-17

 15	1.500000000000000e-01
	5.987001499637921e-16
	1.896212053184269e-12
	4.740530132985590e-12
	9.481060265672183e-13
	1.500000000000000e-01
	-1.522115766761090e-13
	0.000000000000000e+00
	0.000000000000000e+00
	0.000000000000000e+00
	8.408773717786960e-17

 16	1.600000000000000e-01
	6.110736829229962e-16
	2.021274526569851e-12
	5.053186316451187e-12
	1.010637263258366e-12
	1.600000000000000e-01
	-1.622035838977354e-13
	0.000000000000000e+00
	0.000000000000000e+00
	0.000000000000000e+00
	1.094519199231869e-16

 17	1.700000000000000e-01
	6.233664126221665e-16
	2.146320851147422e-12
	5.365802127896758e-12
	1.073160425545508e-12
	1.700000000000000e-01
	-1.723066134218243e-13
	0.000000000000000e+00
	0.000000000000000e+00
	0.000000000000000e+00
	2.242109230502068e-17

 18	1.800000000000000e-01
	6.356080523400065e-16
	2.271355201237804e-12
	5.678388003124356e-12
	1.135677600589056e-12
	1.800000000000000e-01
	-1.822986206434507e-13
	0.000000000000000e+00
	0.000000000000000e+00
	0.000000000000000e+00
	4.540351819285660e-17

 19	1.900000000000000e-01
	6.478210012709729e-16
	2.396380672137640e-12
	5.990951680375589e-12
	1.198190336037331e-12
	1.900000000000000e-01
	-1.922906278650771e-13
	0.000000000000000e+00
	0.000000000000000e+00
	0.000000000000000e+00
	6.764691805010701e-17

 20	2.000000000000000e-01
	6.600224968179963e-16
	2.521399559037382e-12
	6.303498897626588e-12
	1.260699779485559e-12
	2.000000000000000e-01
	-2.022826350867035e-13
	0.000000000000000e+00
	0.000000000000000e+00
	0.000000000000000e+00
	8.935214451592830e-17

 21	2.100000000000000e-01
	6.722260519437517e-16
	2.646413563841509e-12
	6.616033909638549e-12
	1.323206781885979e-12
	2.100000000000000e-01
	-2.122746423083299e-13
	0.000000000000000e+00
	0.000000000000000e+00
	0.000000000000000e+00
	1.106688629111950e-16

 22	2.200000000000001e-01
	6.844424383990792e-16
	2.771423948527584e-12
	6.928559871355377e-12
	1.385711974227374e-12
	2.200000000000001e-01
	-2.224886941348814e-13
	0.000000000000000e+00
	0.000000000000000e+00
	0.000000000000000e+00
	-9.033580173318319e-17

 23	2.300000000000001e-01
	6.966803738904825e-16
	2.896431648863384e-12
	7.241079122196518e-12
	1.448215824393632e-12
	2.300000000000001e-01
	-2.324807013565078e-13
	0.000000000000000e+00
	0.000000000000000e+00
	0.000000000000000e+00
	-6.948906043852506e-17

 24	2.400000000000001e-01
	7.089470113896701e-16
	3.021437358729177e-12
	7.553593396862645e-12
	1.510718679324885e-12
	2.400000000000001e-01
	-2.424727085781342e-13
	0.000000000000000e+00
	0.000000000000000e+00
	0.000000000000000e+00
	-4.877285473651225e-17

 25	2.500000000000001e-01
	7.212482946451982e-16
	3.146441592643457e-12
	7.866103981649989e-12
	1.573220796280383e-12
	2.500000000000001e-01
	-2.524647157997606e-13
	0.000000000000000e+00
	0.000000000000000e+00
	0.000000000000000e+00
	-2.814007939922373e-17

 26	2.600000000000001e-01
	7.335892201911917e-16
	3.271444732126344e-12
	8.178611830358851e-12
	1.635722366020184e-12
	2.600000000000001e-01
	-2.624567230213870e-13
	0.000000000000000e+00
	0.000000000000000e+00
	0.000000000000000e+00
	-7.555216282912403e-18

 27	2.700000000000001e-01
	7.459740332645814e-16
	3.396447060078457e-12
	8.491117650240773e-12
	1.698223529994597e-12
	2.700000000000001e-01
	-2.724487302430134e-13
	0.000000000000000e+00
	0.000000000000000e+00
	0.000000000000000e+00
	1.300861189872277e-17

 28	2.800000000000001e-01
	7.584063768770053e-16
	3.521448786273154e-12
	8.803621965729161e-12
	1.760724393090303e-12
	2.800000000000001e-01
	-2.824407374646398e-13
	0.000000000000000e+00
	0.000000000000000e+00
	0.000000000000000e+00
	3.357183002627532e-17

 29	2.900000000000001e-01
	7.708894062667427e-16
	3.646450066259294e-12
	9.116125165696152e-12
	1.823225033081731e-12
	2.900000000000001e-01
	-2.924327446862662e-13
	0.000000000000000e+00
	0.000000000000000e+00
	0.000000000000000e+00
	5.415003724649787e-17

 30	3.000000000000001e-01
	7.834258778085070e-16
	3.771451015377747e-12
	9.428627538493928e-12
	1.885725507639315e-12
	3.000000000000001e-01
	-3.024247519078926e-13
	0.000000000000000e+00
	0.000000000000000e+00
	0.000000000000000e+00
	7.475521720382782e-17

 31	3.100000000000001e-01
	7.960182190820971e-16
	3.896451719154820e-12
	9.741129297938253e-12
	1.948225859526208e-12
	3.100000000000001e-01
	-3.124167591295191e-13
	0.000000000000000e+00
	0.000000000000000e+00
	0.000000000000000e+00
	9.539663958255034e-17

 32	3.200000000000001e-01
	8.086685843786771e-16
	4.021452241009042e-12
	1.005363060257545e-11
	2.010726120451676e-12
	3.200000000000001e-01
	-3.224087663511455e-13
	0.000000000000000e+00
	0.000000000000000e+00
	0.000000000000000e+00
	1.160815321561216e-16

 33	3.300000000000001e-01
	8.213788991660625e-16
	4.146452627965822e-12
	1.036613156996904e-11
	2.073226313928424e-12
	3.300000000000001e-01
	-3.324007735727719e-13
	0.000000000000000e+00
	0.000000000000000e+00
	0.000000000000000e+00
	1.368155824252066e-16

 34	3.400000000000001e-01
	8.341508961723020e-16
	4.271452914894930e-12
	1.067863228729346e-11
	2.135726457391336e-12
	3.400000000000001e-01
	-3.426148253993233e-13
	0.000000000000000e+00
	0.000000000000000e+00
	0.000000000000000e+00
	-6.444129222557430e-17

 35	3.500000000000001e-01
	8.469861446485655e-16
	4.396453127652615e-12
	1.099113281918931e-11
	2.198226563768535e-12
	3.500000000000001e-01
	-3.526068326209497e-13
	0.000000000000000e+00
	0.000000000000000e+00
	0.000000000000000e+00
	-4.359624419525227e-17

 36	3.600000000000002e-01
	8.598860744287503e-16
	4.521453285411519e-12
	1.130363321358821e-11
	2.260726642646344e-12
	3.600000000000002e-01
	-3.625988398425761e-13
	0.000000000000000e+00
	0.000000000000000e+00
	0.000000000000000e+00
	-2.269091476346342e-17

 37	3.700000000000002e-01
	8.728519958145020e-16
	4.646453402388330e-12
	1.161613350603188e-11
	2.323226701133107e-12
	3.700000000000002e-01
	-3.723688024592775e-13
	0.000000000000000e+00
	0.000000000000000e+00
	0.000000000000000e+00
	2.203217486314952e-16

 38	3.800000000000002e-01
	8.858851161169746e-16
	4.771453489124850e-12
	1.192863372287482e-11
	2.385726744499724e-12
	3.800000000000002e-01
	-3.823608096809039e-13
	0.000000000000000e+00
	0.000000000000000e+00
	0.000000000000000e+00
	2.413545867948438e-16

 39	3.900000000000002e-01
	8.989865535014134e-16
	4.896453553437917e-12
	1.224113388365914e-11
	2.448226776654615e-12
	3.900000000000002e-01
	-3.925748615074554e-13
	0.000000000000000e+00
	0.000000000000000e+00
	0.000000000000000e+00
	4.040934323892199e-17

 40	4.000000000000002e-01
	9.121573486980763e-16
	5.021453601123797e-12
	1.255363400287548e-11
	2.510726800495912e-12
	4.000000000000002e-01
	-4.023448241241567e-13
	0.000000000000000e+00
	0.000000000000000e+00
	0.000000000000000e+00
	2.836213371702686e-16

 41	4.100000000000002e-01
	9.253984748096172e-16
	5.146453636480463e-12
	1.286613409126879e-11
	2.573226818172604e-12
	4.100000000000002e-01
	-4.125588759507082e-13
	0.000000000000000e+00
	0.000000000000000e+00
	0.000000000000000e+00
	8.281346582949871e-17

 42	4.200000000000002e-01
	9.387108455224226e-16
	5.271453662694907e-12
	1.317863415680654e-11
	2.635726831278183e-12
	4.200000000000002e-01
	-4.227729277772596e-13
	0.000000000000000e+00
	0.000000000000000e+00
	0.000000000000000e+00
	-1.179238922880345e-16

 43	4.300000000000002e-01
	9.520953227413852e-16
	5.396453682130310e-12
	1.349113420539669e-11
	2.698226840994242e-12
	4.300000000000002e-01
	-4.329869796038111e-13
	0.000000000000000e+00
	0.000000000000000e+00
	0.000000000000000e+00
	-3.185896862225794e-16

 44	4.400000000000002e-01
	9.655527222790276e-16
	5.521453696538992e-12
	1.380363424142004e-11
	2.760726848196940e-12
	4.400000000000002e-01
	-4.432010314303625e-13
	0.000000000000000e+00
	0.000000000000000e+00
	0.000000000000000e+00
	-5.191829599759959e-16

 45	4.500000000000002e-01
	9.790838193943588e-16
	5.646453707220319e-12
	1.411613426812500e-11
	2.823226853535961e-12
	4.500000000000002e-01
	-4.529709940470639e-13
	0.000000000000000e+00
	0.000000000000000e+00
	0.000000000000000e+00
	-2.756136244902506e-16

 46	4.600000000000002e-01
	9.926893532034175e-16
	5.771453715137774e-12
	1.442863428792027e-11
	2.885726857493045e-12
	4.600000000000002e-01
	-4.631850458736153e-13
	0.000000000000000e+00
	0.000000000000000e+00
	0.000000000000000e+00
	-4.760592832706089e-16

 47	4.700000000000003e-01
	1.006370031037237e-15
	5.896453721005795e-12
	1.474113430259197e-11
	2.948226860425414e-12
	4.700000000000003e-01
	-4.729550084903167e-13
	0.000000000000000e+00
	0.000000000000000e+00
	0.000000000000000e+00
	-2.323407521306810e-16

 48	4.800000000000003e-01
	1.020126531493419e-15
	6.021453725354144e-12
	1.505363431346449e-11
	3.010726862597946e-12
	4.800000000000003e-01
	-4.831690603168681e-13
	0.000000000000000e+00
	0.000000000000000e+00
	0.000000000000000e+00
	-4.326357297922786e-16

 49	4.900000000000003e-01
	1.033959507789869e-15
	6.146453728575638e-12
	1.536613432151986e-11
	3.073226864207050e-12
	4.900000000000003e-01
	-4.933831121434196e-13
	0.000000000000000e+00
	0.000000000000000e+00
	0.000000000000000e+00
	-6.328543217621733e-16

 50	5.000000000000002e-01
	1.047869590186521e-15
	6.271453730961562e-12
	1.567863432748631e-11
	3.135726865398369e-12
	5.000000000000002e-01
	-5.031530747601209e-13
	0.000000000000000e+00
	0.000000000000000e+00
	0.000000000000000e+00
	-3.889066646272720e-16

 51	5.100000000000002e-01
	1.061857388528297e-15
	6.396453732727900e-12
	1.599113433190380e-11
	3.198226866279896e-12
	5.100000000000002e-01
	-5.133671265866724e-13
	0.000000000000000e+00
	0.000000000000000e+00
	0.000000000000000e+00
	-5.889705509641060e-16

 52	5.200000000000002e-01
	1.075923494394147e-15
	6.521453734034818e-12
	1.630363433517273e-11
	3.260726866931712e-12
	5.200000000000002e-01
	-5.231370892033738e-13
	0.000000000000000e+00
	0.000000000000000e+00
	0.000000000000000e+00
	-3.448669566806715e-16

 53	5.300000000000002e-01
	1.090068482611992e-15
	6.646453735001063e-12
	1.661613433758999e-11
	3.323226867413192e-12
	5.300000000000002e-01
	-5.333511410299252e-13
	0.000000000000000e+00
	0.000000000000000e+00
	0.000000000000000e+00
	-5.447737171490398e-16

 54	5.400000000000003e-01
	1.104292913221353e-15
	6.771453735714706e-12
	1.692863433937572e-11
	3.385726867768370e-12
	5.400000000000003e-01
	-5.431211036466266e-13
	0.000000000000000e+00
	0.000000000000000e+00
	0.000000000000000e+00
	-3.005118455842441e-16

 55	5.500000000000003e-01
	1.118597332732514e-15
	6.896453736241037e-12
	1.724113434069317e-11
	3.448226868029893e-12
	5.500000000000003e-01
	-5.533351554731780e-13
	0.000000000000000e+00
	0.000000000000000e+00
	0.000000000000000e+00
	-5.002592099525738e-16

 56	5.600000000000003e-01
	1.132982275630258e-15
	7.021453736628484e-12
	1.755363434166340e-11
	3.510726868221974e-12
	5.600000000000003e-01
	-5.631051180898794e-13
	0.000000000000000e+00
	0.000000000000000e+00
	0.000000000000000e+00
	-2.558368521954634e-16

 57	5.700000000000003e-01
	1.147448265195974e-15
	7.146453736912952e-12
	1.786613434237616e-11
	3.573226868362566e-12
	5.700000000000003e-01
	-5.733191699164308e-13
	0.000000000000000e+00
	0.000000000000000e+00
	0.000000000000000e+00
	-4.554226658590965e-16

 58	5.800000000000003e-01
	1.161995814963153e-15
	7.271453737121066e-12
	1.817863434289800e-11
	3.635726868464980e-12
	5.800000000000003e-01
	-5.830891325331322e-13
	0.000000000000000e+00
	0.000000000000000e+00
	0.000000000000000e+00
	-2.108377155803221e-16

 59	5.900000000000003e-01
	1.176625429381429e-15
	7.396453737272579e-12
	1.849113434327827e-11
	3.698226868539093e-12
	5.900000000000003e-01
	-5.933031843596837e-13
	0.000000000000000e+00
	0.000000000000000e+00
	0.000000000000000e+00
	-4.102599150296830e-16

 60	6.000000000000003e-01
	1.191337604729728e-15
	7.521453737382146e-12
	1.880363434355361e-11
	3.760726868592235e-12
	6.000000000000003e-01
	-6.030731469763850e-13
	0.000000000000000e+00
	0.000000000000000e+00
	0.000000000000000e+00
	-1.655103470561128e-16

 61	6.100000000000003e-01
	1.206132829805997e-15
	7.646453737460636e-12
	1.911613434375113e-11
	3.823226868629837e-12
	6.100000000000003e-01
	-6.132871988029365e-13
	0.000000000000000e+00
	0.000000000000000e+00
	0.000000000000000e+00
	-3.647669416935025e-16

 62	6.200000000000003e-01
	1.221011586833315e-15
	7.771453737516135e-12
	1.942863434389098e-11
	3.885726868655944e-12
	6.200000000000003e-01
	-6.230571614196379e-13
	0.000000000000000e+00
	0.000000000000000e+00
	0.000000000000000e+00
	-1.198507963726965e-16

 63	6.300000000000003e-01
	1.235974351869442e-15
	7.896453737554649e-12
	1.974113434398809e-11
	3.948226868673559e-12
	6.300000000000003e-01
	-6.337153024560394e-13
	0.000000000000000e+00
	0.000000000000000e+00
	0.000000000000000e+00
	-7.630290641075248e-16

 64	6.400000000000003e-01
	1.251021595519931e-15
	8.021453737580664e-12
	2.005363434405356e-11
	4.010726868684923e-12
	6.400000000000003e-01
	-6.434852650727407e-13
	0.000000000000000e+00
	0.000000000000000e+00
	0.000000000000000e+00
	-5.179444345356345e-16

 65	6.500000000000004e-01
	1.266153783230224e-15
	8.146453737597550e-12
	2.036613434409565e-11
	4.073226868691724e-12
	6.500000000000004e-01
	-6.528111384795920e-13
	0.000000000000000e+00
	0.000000000000000e+00
	0.000000000000000e+00
	1.713143482045329e-16

 66	6.600000000000004e-01
	1.281371376129930e-15
	8.271453737607854e-12
	2.067863434412050e-11
	4.135726868695233e-12
	6.600000000000004e-01
	-6.630251903061435e-13
	0.000000000000000e+00
	0.000000000000000e+00
	0.000000000000000e+00
	-2.751988410837431e-17

 67	6.700000000000004e-01
	1.296674831086289e-15
	8.396453737613531e-12
	2.099113434413266e-11
	4.198226868696429e-12
	6.700000000000004e-01
	-6.727951529228449e-13
	0.000000000000000e+00
	0.000000000000000e+00
	0.000000000000000e+00
	2.178209550931202e-16

 68	6.800000000000004e-01
	1.312064601243922e-15
	8.521453737616130e-12
	2.130363434413562e-11
	4.260726868696085e-12
	6.800000000000004e-01
	-6.830092047493963e-13
	0.000000000000000e+00
	0.000000000000000e+00
	0.000000000000000e+00
	1.915889936930837e-17

 69	6.900000000000004e-01
	1.327541136540254e-15
	8.646453737616927e-12
	2.161613434413199e-11
	4.323226868694841e-12
	6.900000000000004e-01
	-6.927791673660977e-13
	0.000000000000000e+00
	0.000000000000000e+00
	0.000000000000000e+00
	2.646728184482963e-16

 70	7.000000000000004e-01
	1.343104883723347e-15
	8.771453737617012e-12
	2.192863434412378e-11
	4.385726868693241e-12
	7.000000000000004e-01
	-7.029932191926491e-13
	0.000000000000000e+00
	0.000000000000000e+00
	0.000000000000000e+00
	6.618473945120106e-17

 71	7.100000000000004e-01
	1.358756286886204e-15
	8.896453737617416e-12
	2.224113434411260e-11
	4.448226868691801e-12
	7.100000000000004e-01
	-7.127631818093505e-13
	0.000000000000000e+00
	0.000000000000000e+00
	0.000000000000000e+00
	3.118735262340248e-16

 72	7.200000000000004e-01
	1.374495787747250e-15
	9.021453737619146e-12
	2.255363434409975e-11
	4.510726868691024e-12
	7.200000000000004e-01
	-7.229772336359019e-13
	0.000000000000000e+00
	0.000000000000000e+00
	0.000000000000000e+00
	1.135612008715477e-16

 73	7.300000000000004e-01
	1.390323825581924e-15
	9.146453737623293e-12
	2.286613434408640e-11
	4.573226868691454e-12
	7.300000000000004e-01
	-7.327471962526033e-13
	0.000000000000000e+00
	0.000000000000000e+00
	0.000000000000000e+00
	3.594266223950734e-16

 74	7.400000000000004e-01
	1.406240838023430e-15
	9.271453737631068e-12
	2.317863434407359e-11
	4.635726868693699e-12
	7.400000000000004e-01
	-7.434053372890048e-13
	0.000000000000000e+00
	0.000000000000000e+00
	0.000000000000000e+00
	-2.827974010551372e-16

 75	7.500000000000004e-01
	1.422247260794979e-15
	9.396453737643895e-12
	2.349113434406235e-11
	4.698226868698470e-12
	7.500000000000004e-01
	-7.531752999057062e-13
	0.000000000000000e+00
	0.000000000000000e+00
	0.000000000000000e+00
	-3.675359429197584e-17

 76	7.600000000000005e-01
	1.438343528070258e-15
	9.521453737663463e-12
	2.380363434405379e-11
	4.760726868706611e-12
	7.600000000000005e-01
	-7.633893517322576e-13
	0.000000000000000e+00
	0.000000000000000e+00
	0.000000000000000e+00
	-2.347091526194872e-16

 77	7.700000000000005e-01
	1.454530072658507e-15
	9.646453737691816e-12
	2.411613434404910e-11
	4.823226868719145e-12
	7.700000000000005e-01
	-7.731593143489590e-13
	0.000000000000000e+00
	0.000000000000000e+00
	0.000000000000000e+00
	1.151477655690613e-17

 78	7.800000000000005e-01
	1.470807326346967e-15
	9.771453737731418e-12
	2.442863434404964e-11
	4.885726868737303e-12
	7.800000000000005e-01
	-7.833733661755105e-13
	0.000000000000000e+00
	0.000000000000000e+00
	0.000000000000000e+00
	-1.862597945742226e-16

 79	7.900000000000005e-01
	1.487175719635781e-15
	9.896453737785278e-12
	2.474113434405704e-11
	4.948226868762591e-12
	7.900000000000005e-01
	-7.931433287922118e-13
	0.000000000000000e+00
	0.000000000000000e+00
	0.000000000000000e+00
	6.014598430980975e-17

 80	8.000000000000005e-01
	1.503635682309511e-15
	1.002145373785702e-11
	2.505363434407316e-11
	5.010726868796820e-12
	8.000000000000005e-01
	-8.029132914089132e-13
	0.000000000000000e+00
	0.000000000000000e+00
	0.000000000000000e+00
	3.066433332897495e-16

 81	8.100000000000005e-01
	1.520187643406004e-15
	1.014645373795104e-11
	2.536613434410025e-11
	5.073226868842185e-12
	8.100000000000005e-01
	-8.135714324453147e-13
	0.000000000000000e+00
	0.000000000000000e+00
	0.000000000000000e+00
	-3.349457381202324e-16

 82	8.200000000000005e-01
	1.536832031432655e-15
	1.027145373807258e-11
	2.567863434414100e-11
	5.135726868901315e-12
	8.200000000000005e-01
	-8.233413950620161e-13
	0.000000000000000e+00
	0.000000000000000e+00
	0.000000000000000e+00
	-8.826396180076716e-17

 83	8.300000000000005e-01
	1.553569274131178e-15
	1.039645373822797e-11
	2.599113434419858e-11
	5.198226868977366e-12
	8.300000000000005e-01
	-8.331113576787175e-13
	0.000000000000000e+00
	0.000000000000000e+00
	0.000000000000000e+00
	1.585106705426237e-16

 84	8.400000000000005e-01
	1.570399799117917e-15
	1.052145373842471e-11
	2.630363434427678e-11
	5.260726869074094e-12
	8.400000000000005e-01
	-8.428813202954188e-13
	0.000000000000000e+00
	0.000000000000000e+00
	0.000000000000000e+00
	4.053785868269196e-16

 85	8.500000000000005e-01
	1.587324033725828e-15
	1.064645373867170e-11
	2.661613434438005e-11
	5.323226869195947e-12
	8.500000000000005e-01
	-8.526512829121202e-13
	0.000000000000000e+00
	0.000000000000000e+00
	0.000000000000000e+00
	6.523402147415800e-16

 86	8.600000000000005e-01
	1.604342404825567e-15
	1.077145373897946e-11
	2.692863434451367e-11
	5.385726869348182e-12
	8.600000000000005e-01
	-8.633094239485217e-13
	0.000000000000000e+00
	0.000000000000000e+00
	0.000000000000000e+00
	1.121756187759610e-17

 87	8.700000000000006e-01
	1.621455339551938e-15
	1.089645373936032e-11
	2.724113434468381e-11
	5.448226869536972e-12
	8.700000000000006e-01
	-8.730793865652231e-13
	0.000000000000000e+00
	0.000000000000000e+00
	0.000000000000000e+00
	2.583678952643456e-16

 88	8.800000000000006e-01
	1.638663264843874e-15
	1.102145373982875e-11
	2.755363434489772e-11
	5.510726869769544e-12
	8.800000000000006e-01
	-8.828493491819245e-13
	0.000000000000000e+00
	0.000000000000000e+00
	0.000000000000000e+00
	5.056132227187493e-16

 89	8.900000000000006e-01
	1.655966607703920e-15
	1.114645374040157e-11
	2.786613434516381e-11
	5.573226870054310e-12
	8.900000000000006e-01
	-8.935074902183260e-13
	0.000000000000000e+00
	0.000000000000000e+00
	0.000000000000000e+00
	-1.352244477836162e-16

 90	9.000000000000006e-01
	1.673365795367413e-15
	1.127145374109832e-11
	2.817863434549185e-11
	5.635726870401041e-12
	9.000000000000006e-01
	-9.032774528350274e-13
	0.000000000000000e+00
	0.000000000000000e+00
	0.000000000000000e+00
	1.122121511746201e-16

 91	9.100000000000006e-01
	1.690861255280209e-15
	1.139645374194156e-11
	2.849113434589315e-11
	5.698226870821023e-12
	9.100000000000006e-01
	-9.130474154517287e-13
	0.000000000000000e+00
	0.000000000000000e+00
	0.000000000000000e+00
	3.597450282423561e-16

 92	9.200000000000006e-01
	1.708453415067655e-15
	1.152145374295731e-11
	2.880363434638066e-11
	5.760726871327250e-12
	9.200000000000006e-01
	-9.237055564881302e-13
	0.000000000000000e+00
	0.000000000000000e+00
	0.000000000000000e+00
	-2.808038076163955e-16

 93	9.300000000000006e-01
	1.726142702786713e-15
	1.164645374417537e-11
	2.911613434696935e-11
	5.823226871934641e-12
	9.300000000000006e-01
	-9.334755191048316e-13
	0.000000000000000e+00
	0.000000000000000e+00
	0.000000000000000e+00
	-3.307708775000527e-17

 94	9.400000000000006e-01
	1.743929546889709e-15
	1.177145374562987e-11
	2.942863434767625e-11
	5.885726872660247e-12
	9.400000000000006e-01
	-9.432454817215330e-13
	0.000000000000000e+00
	0.000000000000000e+00
	0.000000000000000e+00
	2.147471979572513e-16

 95	9.500000000000006e-01
	1.761814376278905e-15
	1.189645374735964e-11
	2.974113434852078e-11
	5.948226873523488e-12
	9.500000000000006e-01
	-9.530154443382344e-13
	0.000000000000000e+00
	0.000000000000000e+00
	0.000000000000000e+00
	4.626694799616529e-16

 96	9.600000000000006e-01
	1.779797620357787e-15
	1.202145374940880e-11
	3.005363434952501e-11
	6.010726874546427e-12
	9.600000000000006e-01
	-9.636735853746359e-13
	0.000000000000000e+00
	0.000000000000000e+00
	0.000000000000000e+00
	-1.774882302687791e-16

 97	9.700000000000006e-01
	1.797879709079763e-15
	1.214645375182731e-11
	3.036613435071390e-11
	6.073226875754040e-12
	9.700000000000006e-01
	-9.734435479913373e-13
	0.000000000000000e+00
	0.000000000000000e+00
	0.000000000000000e+00
	7.063133861801340e-17

 98	9.800000000000006e-01
	1.816061072993848e-15
	1.227145375467156e-11
	3.067863435211567e-11
	6.135726877174524e-12
	9.800000000000006e-01
	-9.832135106080386e-13
	0.000000000000000e+00
	0.000000000000000e+00
	0.000000000000000e+00
	3.188501997263891e-16

 99	9.900000000000007e-01
	1.834342143390150e-15
	1.239645375800499e-11
	3.099113435376202e-11
	6.198226878839593e-12
	9.900000000000007e-01
	-9.929834732247400e-13
	0.000000000000000e+00
	0.000000000000000e+00
	0.000000000000000e+00
	5.671687868839532e-16

 100	1.000000000000001e+00
	1.852723352139053e-15
	1.252145376189879e-11
	3.130363435568857e-11
	6.260726880784851e-12
	1.000000000000001e+00
	-1.003641614261142e-12
	0.000000000000000e+00
	0.000000000000000e+00
	0.000000000000000e+00
	-7.259088489076771e-17

 101	1.010000000000001e+00
	1.871205131933423e-15
	1.264645376643262e-11
	3.161613435793512e-11
	6.323226883050122e-12
	1.010000000000001e+00
	-1.013411576877843e-12
	0.000000000000000e+00
	0.000000000000000e+00
	0.000000000000000e+00
	1.759284596809183e-16

 102	1.020000000000001e+00
	1.889787916120377e-15
	1.277145377169539e-11
	3.192863436054615e-11
	6.385726885679866e-12
	1.020000000000001e+00
	-1.024069717914244e-12
	0.000000000000000e+00
	0.000000000000000e+00
	0.000000000000000e+00
	-4.636295818971522e-16

 103	1.030000000000001e+00
	1.908472138837442e-15
	1.289645377778608e-11
	3.224113436357113e-11
	6.448226888723571e-12
	1.030000000000001e+00
	-1.032951502111246e-12
	0.000000000000000e+00
	0.000000000000000e+00
	0.000000000000000e+00
	6.732706875720390e-16

 104	1.040000000000001e+00
	1.927258235258098e-15
	1.302145378481462e-11
	3.255363436706504e-11
	6.510726892236194e-12
	1.040000000000001e+00
	-1.043609643147647e-12
	0.000000000000000e+00
	0.000000000000000e+00
	0.000000000000000e+00
	3.391602885825113e-17

 105	1.050000000000001e+00
	1.946146641203301e-15
	1.314645379290273e-11
	3.286613437108874e-11
	6.573226896278607e-12
	1.050000000000001e+00
	-1.053379605764349e-12
	0.000000000000000e+00
	0.000000000000000e+00
	0.000000000000000e+00
	2.828421417520751e-16

 106	1.060000000000001e+00
	1.965137793594672e-15
	1.327145380218495e-11
	3.317863437570948e-11
	6.635726900918077e-12
	1.060000000000001e+00
	-1.064037746800750e-12
	0.000000000000000e+00
	0.000000000000000e+00
	0.000000000000000e+00
	-3.563073708434108e-16

 107	1.070000000000001e+00
	1.984232130056393e-15
	1.339645381280968e-11
	3.349113438100149e-11
	6.698226906228798e-12
	1.070000000000001e+00
	-1.072919530997751e-12
	0.000000000000000e+00
	0.000000000000000e+00
	0.000000000000000e+00
	7.810031937319196e-16

 108	1.080000000000001e+00
	2.003430089262657e-15
	1.352145382494012e-11
	3.380363438704635e-11
	6.760726912292376e-12
	1.080000000000001e+00
	-1.083577672034153e-12
	0.000000000000000e+00
	0.000000000000000e+00
	0.000000000000000e+00
	1.420606018798126e-16

 109	1.090000000000001e+00
	2.022732110967683e-15
	1.364645383875551e-11
	3.411613439393368e-11
	6.823226919198430e-12
	1.090000000000001e+00
	-1.093347634650854e-12
	0.000000000000000e+00
	0.000000000000000e+00
	0.000000000000000e+00
	3.914005596249052e-16

 110	1.100000000000001e+00
	2.042138635700902e-15
	1.377145385445221e-11
	3.442863440176167e-11
	6.885726927045138e-12
	1.100000000000001e+00
	-1.104005775687256e-12
	0.000000000000000e+00
	0.000000000000000e+00
	0.000000000000000e+00
	-2.473333240497652e-16

 111	1.110000000000001e+00
	2.061650105342376e-15
	1.389645387224494e-11
	3.474113441063768e-11
	6.948226935939860e-12
	1.110000000000001e+00
	-1.114663916723657e-12
	0.000000000000000e+00
	0.000000000000000e+00
	0.000000000000000e+00
	-8.859621789749615e-16

 112	1.120000000000001e+00
	2.081266962480585e-15
	1.402145389236805e-11
	3.505363442067887e-11
	7.010726945999768e-12
	1.120000000000001e+00
	-1.123545700920658e-12
	0.000000000000000e+00
	0.000000000000000e+00
	0.000000000000000e+00
	2.518712862117839e-16

 113	1.130000000000001e+00
	2.100989651103595e-15
	1.414645391507678e-11
	3.536613443201288e-11
	7.073226957352493e-12
	1.130000000000001e+00
	-1.133315663537360e-12
	0.000000000000000e+00
	0.000000000000000e+00
	0.000000000000000e+00
	5.016322666084872e-16

 114	1.140000000000001e+00