Title: **.subckt tb_cp
Date: Mon Mar 29 17:13:01  2021
Plotname: Transient Analysis
Flags: real
No. Variables: 61
No. Points: 2150
Variables:
	0	time	time
	1	v(down)	voltage
	2	v(m.x1.xm1.msky130_fd_pr__pfet_01v8#body)	voltage
	3	v(m.x1.xm1.msky130_fd_pr__pfet_01v8#dbody)	voltage
	4	v(m.x1.xm1.msky130_fd_pr__pfet_01v8#sbody)	voltage
	5	v(m.x1.xm2.msky130_fd_pr__nfet_01v8#body)	voltage
	6	v(m.x1.xm2.msky130_fd_pr__nfet_01v8#dbody)	voltage
	7	v(m.x1.xm2.msky130_fd_pr__nfet_01v8#sbody)	voltage
	8	v(m.x1.xm3.msky130_fd_pr__pfet_01v8#body)	voltage
	9	v(m.x1.xm3.msky130_fd_pr__pfet_01v8#dbody)	voltage
	10	v(m.x1.xm3.msky130_fd_pr__pfet_01v8#sbody)	voltage
	11	v(m.x1.xm4.msky130_fd_pr__pfet_01v8#body)	voltage
	12	v(m.x1.xm4.msky130_fd_pr__pfet_01v8#dbody)	voltage
	13	v(m.x1.xm4.msky130_fd_pr__pfet_01v8#sbody)	voltage
	14	v(m.x1.xm5.msky130_fd_pr__nfet_01v8#body)	voltage
	15	v(m.x1.xm5.msky130_fd_pr__nfet_01v8#dbody)	voltage
	16	v(m.x1.xm5.msky130_fd_pr__nfet_01v8#sbody)	voltage
	17	v(m.x1.xm6.msky130_fd_pr__nfet_01v8#body)	voltage
	18	v(m.x1.xm6.msky130_fd_pr__nfet_01v8#dbody)	voltage
	19	v(m.x1.xm6.msky130_fd_pr__nfet_01v8#sbody)	voltage
	20	v(m.x1.xm7.msky130_fd_pr__pfet_01v8#body)	voltage
	21	v(m.x1.xm7.msky130_fd_pr__pfet_01v8#dbody)	voltage
	22	v(m.x1.xm7.msky130_fd_pr__pfet_01v8#sbody)	voltage
	23	v(m.x1.xm8.msky130_fd_pr__nfet_01v8#body)	voltage
	24	v(m.x1.xm8.msky130_fd_pr__nfet_01v8#dbody)	voltage
	25	v(m.x1.xm8.msky130_fd_pr__nfet_01v8#sbody)	voltage
	26	v(m.x1.xm9.msky130_fd_pr__nfet_01v8#body)	voltage
	27	v(m.x1.xm9.msky130_fd_pr__nfet_01v8#dbody)	voltage
	28	v(m.x1.xm9.msky130_fd_pr__nfet_01v8#sbody)	voltage
	29	v(m.x1.xm10.msky130_fd_pr__pfet_01v8#body)	voltage
	30	v(m.x1.xm10.msky130_fd_pr__pfet_01v8#dbody)	voltage
	31	v(m.x1.xm10.msky130_fd_pr__pfet_01v8#sbody)	voltage
	32	v(m.x1.xm11.msky130_fd_pr__pfet_01v8#body)	voltage
	33	v(m.x1.xm11.msky130_fd_pr__pfet_01v8#dbody)	voltage
	34	v(m.x1.xm11.msky130_fd_pr__pfet_01v8#sbody)	voltage
	35	v(m.x1.xm12.msky130_fd_pr__nfet_01v8#body)	voltage
	36	v(m.x1.xm12.msky130_fd_pr__nfet_01v8#dbody)	voltage
	37	v(m.x1.xm12.msky130_fd_pr__nfet_01v8#sbody)	voltage
	38	v(m.x1.xm13.msky130_fd_pr__pfet_01v8#body)	voltage
	39	v(m.x1.xm13.msky130_fd_pr__pfet_01v8#dbody)	voltage
	40	v(m.x1.xm13.msky130_fd_pr__pfet_01v8#sbody)	voltage
	41	v(m.x1.xm14.msky130_fd_pr__nfet_01v8#body)	voltage
	42	v(m.x1.xm14.msky130_fd_pr__nfet_01v8#dbody)	voltage
	43	v(m.x1.xm14.msky130_fd_pr__nfet_01v8#sbody)	voltage
	44	v(net1)	voltage
	45	v(out)	voltage
	46	v(up)	voltage
	47	v(vdd)	voltage
	48	i(vdd)	current
	49	i(vref)	current
	50	i(vref1)	current
	51	v(vss)	voltage
	52	i(vss)	current
	53	v(x1.downb)	voltage
	54	v(x1.net1)	voltage
	55	v(x1.net2)	voltage
	56	v(x1.net3)	voltage
	57	v(x1.net4)	voltage
	58	v(x1.outn)	voltage
	59	v(x1.outp)	voltage
	60	v(x1.upb)	voltage
Values:
 0	0.000000000000000e+00
	0.000000000000000e+00
	1.799999999981643e+00
	1.799999999955769e+00
	1.799999999990821e+00
	1.837477638883865e-11
	9.187388194185651e-12
	4.593682086326434e-11
	1.800000000000000e+00
	1.800000000000000e+00
	1.800000000000000e+00
	1.799999999930197e+00
	1.799999999920085e+00
	1.799999999930116e+00
	1.843987703742111e-11
	4.608964245941267e-11
	9.219938518445790e-12
	-8.626893260521628e-82
	-2.156723314662284e-81
	-4.313446634942047e-82
	1.799999999964573e+00
	1.799999999946483e+00
	1.799999999947234e+00
	4.648122661399612e-12
	1.162030665037752e-11
	2.324061333815778e-12
	4.021151160491944e-11
	6.365907507185677e-11
	5.697545974290142e-11
	1.799999999999203e+00
	1.799999999998007e+00
	1.799999999999602e+00
	1.800000000000000e+00
	1.800000000000000e+00
	1.800000000000000e+00
	2.250871227486547e-11
	5.627051327528349e-11
	1.125435613714656e-11
	1.800000000000000e+00
	1.800000000000000e+00
	1.800000000000000e+00
	2.250871227486142e-11
	5.627051327527339e-11
	1.125435613714453e-11
	0.000000000000000e+00
	0.000000000000000e+00
	0.000000000000000e+00
	1.800000000000000e+00
	-1.957607687064211e-10
	0.000000000000000e+00
	0.000000000000000e+00
	0.000000000000000e+00
	-2.955852073474207e-12
	1.799999993153537e+00
	1.799999357428507e+00
	1.765460687654363e-72
	3.712035301863899e-01
	1.736675627545192e+00
	1.469331014366205e+00
	4.012293813919799e-01
	1.799999993153214e+00

 1	6.000000000000001e-14
	0.000000000000000e+00
	1.800000132233381e+00
	1.800000335134069e+00
	1.800000029280280e+00
	1.158388979066974e-03
	5.795806611324740e-04
	6.660568942285228e-04
	1.800000018332617e+00
	1.800000024226311e+00
	1.800000008189397e+00
	1.800017913520946e+00
	1.800045973548898e+00
	1.800008362559496e+00
	4.436542970491786e-04
	9.508043447127301e-04
	8.937062295488958e-05
	6.876212032465130e-05
	9.979117844497134e-05
	3.065860415846073e-05
	1.800000076737667e+00
	1.800000027377229e+00
	1.800000319566714e+00
	1.221150784658231e-09
	1.828048615259981e-09
	5.453575963585740e-10
	1.636481072852081e-03
	1.415634507134333e-03
	1.269638059257505e-03
	1.800244538080620e+00
	1.800331214771730e+00
	1.800109269947648e+00
	1.800000805212925e+00
	1.800002851529275e+00
	1.800000331240009e+00
	4.307226543515129e-07
	1.158390906003115e-06
	1.915364569121964e-07
	1.800244219085594e+00
	1.800793478337841e+00
	1.800110905472902e+00
	1.190601459756852e-03
	8.157162068896662e-04
	5.318280595375984e-04
	1.101376855540284e-05
	5.617021963255445e-04
	1.800000000000000e-02
	1.800000000000000e+00
	2.115975135628043e-04
	-5.140261610939353e-04
	1.480424812231283e-07
	0.000000000000000e+00
	-7.918355551109416e-15
	1.800014210705208e+00
	1.799999507257926e+00
	6.257096940945894e-04
	3.712035436520564e-01
	1.738804733235279e+00
	1.471110150485323e+00
	4.012300578981156e-01
	1.803848005030316e+00

 2	1.200000000000000e-13
	0.000000000000000e+00
	1.800000069603771e+00
	1.800000144344323e+00
	1.800000031629220e+00
	1.239938457516871e-03
	6.723747005459253e-04
	6.957882524018660e-04
	1.799999996793145e+00
	1.799999995898669e+00
	1.799999999436113e+00
	1.800019106435231e+00
	1.800046494749309e+00
	1.800009462658533e+00
	5.188639241433535e-04
	1.059827580354167e-03
	1.571108184545717e-04
	4.157930752763583e-05
	6.094316680578687e-05
	2.182565452529797e-05
	1.800000062743843e+00
	1.800000030678044e+00
	1.800000135634635e+00
	3.959456373880954e-10
	5.942465686192833e-10
	2.345074339401828e-10
	2.000140696029329e-03
	1.744271754797522e-03
	1.602338114981894e-03
	1.800177840310136e+00
	1.800241740747119e+00
	1.800091019789323e+00
	1.800000888794311e+00
	1.800002588418473e+00
	1.800000424227234e+00
	3.630852685697384e-07
	8.977658790265686e-07
	1.825753215126808e-07
	1.800281767616732e+00
	1.800792467922109e+00
	1.800135592216840e+00
	1.276163757096515e-03
	8.523527936915298e-04
	6.261414400326996e-04
	3.188889569940262e-05
	1.075645252899392e-03
	3.600000000000000e-02
	1.800000000000000e+00
	2.090220001533527e-04
	-5.301888402591896e-04
	9.198653704630549e-08
	0.000000000000000e+00
	-3.271328096596468e-15
	1.800023824044758e+00
	1.799999457651827e+00
	9.079459297174353e-04
	3.712035461183291e-01
	1.740023594348448e+00
	1.472125283902722e+00
	4.012300053176562e-01
	1.806843284203450e+00

 3	2.400000000000000e-13
	0.000000000000000e+00
	1.800000011781266e+00
	1.800000001901979e+00
	1.800000021653624e+00
	1.221404010912400e-03
	6.818395965855106e-04
	6.717280560350619e-04
	1.799999997466863e+00
	1.799999996412068e+00
	1.799999997888531e+00
	1.800018479791392e+00
	1.800044413685402e+00
	1.800009338851690e+00
	5.480296710688171e-04
	1.040965365367574e-03
	2.446300378421659e-04
	2.135729971328982e-05
	3.087728648464906e-05
	1.098238145094788e-05
	1.800000021003174e+00
	1.800000014957764e+00
	1.800000003568097e+00
	-1.250407232616935e-09
	-1.868365066826083e-09
	-5.647856690303062e-10
	2.216818909532237e-03
	1.951833368139200e-03
	1.843568747584401e-03
	1.800120669239987e+00
	1.800162899736239e+00
	1.800061743018065e+00
	1.800000832342788e+00
	1.800002289028061e+00
	1.800000434370157e+00
	3.072857444125308e-07
	7.676205937279246e-07
	1.559315387843348e-07
	1.800285183533137e+00
	1.800740114303666e+00
	1.800145729842596e+00
	1.258948020347436e-03
	8.280209928220317e-04
	6.396720920071588e-04
	9.242909154993166e-05
	2.075682526876394e-03
	7.200000000000001e-02
	1.800000000000000e+00
	2.052921672309541e-04
	-5.324766994158943e-04
	8.178069053768958e-08
	0.000000000000000e+00
	4.100040789789762e-15
	1.800042049861932e+00
	1.799999418126978e+00
	1.361105355966175e-03
	3.712035352901485e-01
	1.742130460146151e+00
	1.473881688780548e+00
	4.012299963468687e-01
	1.812524663723061e+00

 4	4.800000000000001e-13
	0.000000000000000e+00
	1.800000032245349e+00
	1.800000083318633e+00
	1.800000008624927e+00
	1.170776818156096e-03
	6.369275258171292e-04
	6.505880922017815e-04
	1.800000004399956e+00
	1.800000006074095e+00
	1.800000002749999e+00
	1.800017578062996e+00
	1.800042867207121e+00
	1.800008723402903e+00
	5.252588477756559e-04
	9.686469902239203e-04
	2.717115598306867e-04
	3.101429999863771e-05
	4.546666415470457e-05
	1.496158667156165e-05
	1.800000014927355e+00
	1.800000003769194e+00
	1.800000079688712e+00
	6.296618903361972e-10
	9.554111390919218e-10
	2.083664756563302e-10
	2.123627268724976e-03
	1.860700306768548e-03
	1.791101457066957e-03
	1.800140012548271e+00
	1.800190341237592e+00
	1.800068217128091e+00
	1.800000753873390e+00
	1.800002209017918e+00
	1.800000366499600e+00
	3.101445497342229e-07
	7.761778575143818e-07
	1.529757354929931e-07
	1.800279561403463e+00
	1.800743256563337e+00
	1.800137611323001e+00
	1.206524957476368e-03
	8.023518818141978e-04
	5.958471164035597e-04
	3.189372929690506e-04
	3.998388893120562e-03
	1.440000000000000e-01
	1.800000000000000e+00
	2.086821317958745e-04
	-5.279379714757595e-04
	8.313196533374020e-08
	0.000000000000000e+00
	-1.176268581974119e-14
	1.800076152692106e+00
	1.799999453770458e+00
	2.180426958565407e-03
	3.712035262164927e-01
	1.745970523707098e+00
	1.477148412251808e+00
	4.012302381313831e-01
	1.823507630768925e+00

 5	9.600000000000002e-13
	0.000000000000000e+00
	1.800000011847114e+00
	1.800000010482186e+00
	1.800000012260988e+00
	1.089314333148750e-03
	6.082104811571345e-04
	6.076005362147113e-04
	1.799999996381826e+00
	1.799999994965857e+00
	1.799999997790768e+00
	1.800016731972436e+00
	1.800040407682373e+00
	1.800008442534401e+00
	5.447946825363481e-04
	1.018007869976245e-03
	2.655998208321703e-04
	2.405431734667444e-05
	3.495222810445647e-05
	1.264207957326178e-05
	1.800000019576464e+00
	1.800000012369745e+00
	1.800000008916847e+00
	-4.900528489948375e-10
	-7.365168093464991e-10
	-1.289558619591374e-10
	2.128368190732061e-03
	1.868843316342794e-03
	1.796458668894385e-03
	1.800124443340950e+00
	1.800168125405084e+00
	1.800064128766235e+00
	1.800000660614385e+00
	1.800001811040686e+00
	1.800000342338164e+00
	2.428773268571859e-07
	6.034415105521385e-07
	1.244218452904586e-07
	1.800320458180130e+00
	1.800753582911874e+00
	1.800161161824125e+00
	1.121806027271065e-03
	7.536372435313701e-04
	5.691755796622518e-04
	1.135909787247923e-03
	7.668614365582309e-03
	2.880000000000000e-01
	1.800000000000000e+00
	2.111497473112761e-04
	-5.268935104757483e-04
	6.358437290620092e-08
	0.000000000000000e+00
	1.584133626074534e-14
	1.800136876263111e+00
	1.799999464039680e+00
	3.867403867543806e-03
	3.712035295152006e-01
	1.753664208644318e+00
	1.483786231527673e+00
	4.012305288242938e-01
	1.845211507462047e+00

 6	1.920000000000000e-12
	0.000000000000000e+00
	1.800000035215161e+00
	1.800000088453203e+00
	1.800000011410378e+00
	8.619897356921726e-04
	4.938047497773865e-04
	5.021785058650554e-04
	1.800000005032842e+00
	1.800000006908525e+00
	1.800000002840402e+00
	1.800020570825289e+00
	1.800050508055262e+00
	1.800010199977014e+00
	5.746474523662393e-04
	1.065010027697905e-03
	2.896301272022823e-04
	3.290977439914205e-05
	4.827867328444819e-05
	1.579277669453021e-05
	1.800000018476732e+00
	1.800000006156125e+00
	1.800000085633737e+00
	3.443931450783366e-10
	5.278752244347595e-10
	5.369502504973310e-11
	2.120573361227007e-03
	1.856735181719638e-03
	1.850766060910752e-03
	1.800140436018239e+00
	1.800190590294361e+00
	1.800068251244242e+00
	1.800000716721471e+00
	1.800002123044448e+00
	1.800000346528850e+00
	2.994482829415322e-07
	7.538549858451815e-07
	1.464007591239817e-07
	1.800427174008808e+00
	1.800830078359896e+00
	1.800211277629963e+00
	8.669707497737693e-04
	6.289177447122707e-04
	4.275756912230001e-04
	4.045684050931342e-03
	1.569906862061832e-02
	5.760000000000001e-01
	1.800000000000000e+00
	2.152524922382215e-04
	-5.416763649216588e-04
	8.184248773200446e-08
	0.000000000000000e+00
	-9.567109186132185e-15
	1.800256963562825e+00
	1.799999553790854e+00
	7.401611725911805e-03
	3.712035189228380e-01
	1.769033420996450e+00
	1.497691323896595e+00
	4.012313712978142e-01
	1.888410669179386e+00

 7	3.840000000000001e-12
	0.000000000000000e+00
	1.800000082284856e+00
	1.800000162105395e+00
	1.800000044707220e+00
	5.925028194934979e-04
	5.097581663407526e-04
	3.363332952993139e-04
	1.799999998441514e+00
	1.799999997703483e+00
	1.799999998926324e+00
	1.800063138391428e+00
	1.800154038933912e+00
	1.800031570229646e+00
	3.815070876343404e-04
	7.020421324924198e-04
	1.971025084184348e-04
	1.401429082029158e-05
	2.038858506422646e-05
	7.730429814385691e-06
	1.800000074751871e+00
	1.800000038346891e+00
	1.800000153095982e+00
	-3.900487957793353e-10
	-5.857687776673892e-10
	-7.571543635412212e-11
	1.455838814831044e-03
	1.297191280938997e-03
	1.240101490793635e-03
	1.800086551149360e+00
	1.800115562277935e+00
	1.800045411647082e+00
	1.800002218458914e+00
	1.800006311095780e+00
	1.800001111332003e+00
	8.670340596591426e-07
	2.169767411902904e-06
	4.345911079356953e-07
	1.801438542127057e+00
	1.801146164769866e+00
	1.800714456469210e+00
	4.952237898337178e-04
	3.751239244951382e-04
	2.554709666096606e-04
	1.844271189532140e-02
	5.178003933935337e-02
	1.152000000000000e+00
	1.800000000000000e+00
	1.860955650565474e-04
	-6.244315185658504e-04
	2.326907948336284e-07
	0.000000000000000e+00
	2.165828048128521e-14
	1.800775333149123e+00
	1.799999926696072e+00
	1.320340144575521e-02
	3.712035095351318e-01
	1.794818050601481e+00
	1.520873574289951e+00
	4.012353313916304e-01
	1.960944849594934e+00

 8	6.000000000000000e-12
	0.000000000000000e+00
	1.800000087668552e+00
	1.800000194973587e+00
	1.800000040562121e+00
	7.810327027130755e-04
	6.706224721006660e-04
	2.801683665867444e-04
	1.800000005614672e+00
	1.800000007888718e+00
	1.800000003074015e+00
	1.800093016849137e+00
	1.800228114812350e+00
	1.800046470016824e+00
	-8.585308167040825e-04
	-1.632104489263833e-03
	-3.870065261185030e-04
	-4.680084800325355e-05
	-6.836448059927625e-05
	-2.390794530713280e-05
	1.800000062231169e+00
	1.800000028100233e+00
	1.800000187431880e+00
	7.155568303683635e-11
	1.203447454536932e-10
	-8.332259304568359e-11
	-1.925728927174575e-03
	-1.577852630042953e-03
	-2.117085075349523e-03
	1.799884988285899e+00
	1.799846266173767e+00
	1.799941053286144e+00
	1.800002643507758e+00
	1.800007553215617e+00
	1.800001318217014e+00
	1.042358212382952e-06
	2.606296586002768e-06
	5.195166216848126e-07
	1.803109094602354e+00
	1.801030810234180e+00
	1.801548870975940e+00
	5.879148928854641e-04
	1.375233200629489e-04
	2.864059150117611e-04
	5.594085967394816e-02
	1.267650538372127e-01
	1.800000000000000e+00
	1.800000000000000e+00
	1.167536372205027e-04
	-4.522922244828323e-04
	2.788298052300222e-07
	0.000000000000000e+00
	2.522988328352137e-14
	1.801725412850433e+00
	1.800000470233527e+00
	8.528894683286214e-03
	3.712034540391661e-01
	1.790949207092311e+00
	1.504307989783339e+00
	4.012415660029524e-01
	1.953429270442204e+00

 9	6.384000000000000e-12
	0.000000000000000e+00
	1.799999963612221e+00
	1.799999910595659e+00
	1.799999991488214e+00
	3.003909665293689e-05
	1.765724427360764e-04
	-1.481032388008820e-04
	1.799999996898268e+00
	1.799999995692615e+00
	1.799999998534069e+00
	1.800050322386498e+00
	1.800123693444073e+00
	1.800025405656339e+00
	-1.301956288078956e-03
	-2.463156823538704e-03
	-6.009330300604247e-04
	-7.452284066806538e-05
	-1.089244329166153e-04
	-3.701130045479728e-05
	1.799999975105489e+00
	1.799999989861581e+00
	1.799999914889055e+00
	-3.009914370695477e-10
	-4.425295520651962e-10
	-1.494644437835628e-10
	-3.016063458092785e-03
	-2.485080854468746e-03
	-3.275296099986863e-03
	1.799815625616791e+00
	1.799751675345286e+00
	1.799908421249592e+00
	1.800000631024052e+00
	1.800001580534572e+00
	1.800000348481571e+00
	2.018630703252784e-07
	4.791639365668565e-07
	1.089343031295183e-07
	1.799715911183903e+00
	1.799108732683361e+00
	1.799913302252982e+00
	-1.129752353714357e-04
	-3.006419873729897e-04
	-5.085529778078300e-05
	6.493758962603878e-02
	1.352245423767467e-01
	1.800000000000000e+00
	1.800000000000000e+00
	-3.278213431585908e-05
	-1.097679584256703e-05
	4.427388695894471e-08
	0.000000000000000e+00
	-9.248841872517028e-15
	1.801756629385090e+00
	1.800000311208173e+00
	4.798359144879749e-03
	3.712034349225419e-01
	1.782491563390853e+00
	1.490258910581945e+00
	4.012407044193452e-01
	1.930957691857077e+00

 10	7.152000000000000e-12
	0.000000000000000e+00
	1.800000052853160e+00
	1.800000130564033e+00
	1.800000012592319e+00
	1.347415692252800e-05
	1.453631878495826e-04
	-1.423575792928733e-04
	1.800000005043679e+00
	1.800000007003304e+00
	1.800000002365682e+00
	1.800046543191133e+00
	1.800116618192208e+00
	1.800023061515261e+00
	-1.326760109806938e-03
	-2.439113209722732e-03
	-6.920133838323024e-04
	-5.930121223135359e-05
	-8.699402137115275e-05
	-3.003351925374574e-05
	1.800000034249323e+00
	1.800000013361248e+00
	1.800000124042475e+00
	4.904752272730240e-10
	7.349371632103807e-10
	2.368897787075798e-10
	-3.077900641751508e-03
	-2.534344520794318e-03
	-3.345857955853543e-03
	1.799850958943930e+00
	1.799797515276198e+00
	1.799924569064779e+00
	1.800000370228507e+00
	1.800001240898341e+00
	1.800000158822932e+00
	1.839263667679671e-07
	4.845886912990816e-07
	8.444641690124427e-08
	1.799479227002981e+00
	1.798952305944361e+00
	1.799691809183578e+00
	-1.242520044941242e-04
	-2.959921932844042e-04
	-6.744027854964268e-05
	8.277713285582847e-02
	1.518616115878525e-01
	1.800000000000000e+00
	1.800000000000000e+00
	-3.989032752047678e-05
	-6.762060789977707e-07
	5.911157086046798e-08
	0.000000000000000e+00
	1.870928312819579e-14
	1.801824746889177e+00
	1.800000414461314e+00
	-1.799968389015472e-03
	3.712034471410506e-01
	1.767231768452766e+00
	1.464227098054742e+00
	4.012411921807836e-01
	1.887976721997204e+00

 11	8.688000000000000e-12
	0.000000000000000e+00
	1.799999967859485e+00
	1.799999910592557e+00
	1.799999999087661e+00
	2.184735563041701e-05
	1.512713863175503e-04
	-1.407676760434694e-04
	1.799999994747616e+00
	1.799999992705886e+00
	1.799999997574468e+00
	1.800044776764551e+00
	1.800110646605418e+00
	1.800022602783991e+00
	-1.229801091831559e-03
	-2.305572476437021e-03
	-5.973716649349547e-04
	-6.711357933283051e-05
	-9.909408532626008e-05
	-3.314482187926794e-05
	1.799999984086994e+00
	1.799999995939517e+00
	1.799999915241436e+00
	-5.829853336192237e-10
	-8.638302408450760e-10
	-2.782745548653612e-10
	-2.972557628203025e-03
	-2.451461691839615e-03
	-3.149501595864357e-03
	1.799827177649486e+00
	1.799766345942453e+00
	1.799914591849031e+00
	1.800000215809548e+00
	1.800000418492805e+00
	1.800000134715853e+00
	4.390461668218480e-08
	8.308151917824080e-08
	2.999587164392486e-08
	1.799758327400272e+00
	1.799185627908628e+00
	1.799923024854446e+00
	-1.138989669139814e-04
	-3.010064567397289e-04
	-5.180304193112117e-05
	1.173313803173474e-01
	1.832244307318815e-01
	1.800000000000000e+00
	1.800000000000000e+00
	-3.092551044146102e-05
	-9.349365073093427e-06
	9.614002852284184e-10
	0.000000000000000e+00
	-1.205722921766739e-14
	1.801904508886701e+00
	1.800000380084011e+00
	-1.435210594644393e-02
	3.712034330545846e-01
	1.737206675570084e+00
	1.414427817142324e+00
	4.012414719301010e-01
	1.802896681951423e+00

 12	1.176000000000000e-11
	0.000000000000000e+00
	1.800000030229149e+00
	1.800000085779782e+00
	1.799999999920721e+00
	1.918961969980620e-06
	1.075758752301782e-04
	-1.294223260597527e-04
	1.800000005443309e+00
	1.800000007559744e+00
	1.800000002498142e+00
	1.800038007583955e+00
	1.800096152941222e+00
	1.800018801141757e+00
	-1.155300388172270e-03
	-2.139978632975326e-03
	-5.952824690840571e-04
	-5.139654505435239e-05
	-7.500760680132039e-05
	-2.614319239440179e-05
	1.800000013732472e+00
	1.800000002819731e+00
	1.800000081276232e+00
	6.022652873378248e-10
	9.022399253492269e-10
	2.852532097738899e-10
	-2.964240842650068e-03
	-2.441157430236443e-03
	-3.068264619397749e-03
	1.799865341499677e+00
	1.799816598026141e+00
	1.799931588299201e+00
	1.799999851779110e+00
	1.799999764151661e+00
	1.799999901079800e+00
	-1.952017929518597e-08
	-2.267702725253229e-08
	-1.756958182402786e-08
	1.799561411528113e+00
	1.799116402373623e+00
	1.799738415858521e+00
	-1.253327413614439e-04
	-2.977041768668321e-04
	-6.774563278118373e-05
	1.811452062555226e-01
	2.398885346264869e-01
	1.800000000000000e+00
	1.800000000000000e+00
	-3.479322651961381e-05
	-3.182755820556218e-07
	5.417395674254828e-09
	0.000000000000000e+00
	1.638210658106751e-14
	1.801921410246238e+00
	1.800000431396417e+00
	-3.751753438852090e-02
	3.712034373567042e-01
	1.678620359169487e+00
	1.322356674581422e+00
	4.012415631986870e-01
	1.635908511043107e+00

 13	1.790400000000000e-11
	0.000000000000000e+00
	1.799999957198757e+00
	1.799999887398181e+00
	1.799999993938252e+00
	7.380124227271509e-06
	9.632459402928513e-05
	-1.139337421448240e-04
	1.799999994115776e+00
	1.799999991828490e+00
	1.799999997293479e+00
	1.800031680426180e+00
	1.800078717946889e+00
	1.800016044638279e+00
	-9.394995299556053e-04
	-1.777637413092118e-03
	-4.561927585069081e-04
	-5.117508953901724e-05
	-7.566823345471054e-05
	-2.514524613055693e-05
	1.799999976459041e+00
	1.799999992439014e+00
	1.799999893127003e+00
	-5.790128901513036e-10
	-8.583717575703226e-10
	-2.723114055757240e-10
	-2.746483931567950e-03
	-2.256718615400197e-03
	-2.657594773800693e-03
	1.799857597425442e+00
	1.799806771915787e+00
	1.799929884779522e+00
	1.799999765363592e+00
	1.799999145380640e+00
	1.799999907378072e+00
	-1.304581767612050e-07
	-3.527089155420590e-07
	-5.732373711081028e-08
	1.799856600517857e+00
	1.799427520216118e+00
	1.799969605821559e+00
	-1.135451670761908e-04
	-2.988062631665359e-04
	-5.174527645876514e-05
	2.884519111846269e-01
	3.345002868459910e-01
	1.800000000000000e+00
	1.800000000000000e+00
	-2.270792413342632e-05
	-9.664616989424532e-06
	-4.575761576561840e-08
	0.000000000000000e+00
	-1.727364663511820e-14
	1.801708635662520e+00
	1.800000248888604e+00
	-7.693333003474206e-02
	3.712034422855877e-01
	1.568448849128524e+00
	1.164597043314672e+00
	4.012400379186262e-01
	1.317815395571036e+00

 14	3.019200000000001e-11
	0.000000000000000e+00
	1.800000024867803e+00
	1.800000075000312e+00
	1.799999997057867e+00
	-1.532412501385869e-05
	3.544534451436110e-05
	-8.516301314710382e-05
	1.800000005521738e+00
	1.800000007669705e+00
	1.800000002519217e+00
	1.800018954581007e+00
	1.800048840261507e+00
	1.800009275268195e+00
	-6.973402928114533e-04
	-1.309693599528540e-03
	-3.635780939445150e-04
	-2.728591410198030e-05
	-3.965541557038725e-05
	-1.409833948394486e-05
	1.800000008927288e+00
	1.800000000378268e+00
	1.800000071005708e+00
	6.207497054355401e-10
	9.299771787612925e-10
	2.925136198385041e-10
	-2.528562242994084e-03
	-2.046758458335692e-03
	-2.247748432445214e-03
	1.799918870760624e+00
	1.799885152785393e+00
	1.799958315788348e+00
	1.799999716494729e+00
	1.799999379128647e+00
	1.799999833596613e+00
	-7.255436978265603e-08
	-1.548049837786763e-07
	-4.419800189838286e-08
	1.799699082287180e+00
	1.799454628539575e+00
	1.799808578500358e+00
	-1.246821053417549e-04
	-2.904113232585477e-04
	-6.736244844139197e-05
	4.410887516324182e-01
	4.695700832209522e-01
	1.800000000000000e+00
	1.800000000000000e+00
	-2.312689850902244e-05
	-8.102824175845956e-07
	-8.534857015729958e-09
	0.000000000000000e+00
	-6.789687436419008e-15
	1.801134694844236e+00
	1.799999992193014e+00
	-1.355693953706608e-01
	3.712034757568524e-01
	1.375353204770417e+00
	9.274592712694696e-01
	4.012365232278537e-01
	7.498405694554848e-01

 15	5.476800000000001e-11
	0.000000000000000e+00
	1.799999963567908e+00
	1.799999900618410e+00
	1.799999997158694e+00
	-2.126387412380114e-05
	9.250684809620233e-06
	-3.442919803789684e-05
	1.799999994152929e+00
	1.799999991899105e+00
	1.799999997321132e+00
	1.800006383151393e+00
	1.800015188599416e+00
	1.800003393865452e+00
	-1.480375248765148e-04
	-3.014677459347932e-04
	-6.132358193344466e-05
	-1.160272738644985e-05
	-1.749818724505509e-05
	-5.351288090621922e-06
	1.799999981802962e+00
	1.799999995071260e+00
	1.799999905725511e+00
	-5.922833656629625e-10
	-8.782371008274163e-10
	-2.779440674599549e-10
	-7.542165103262637e-04
	-5.474261414505112e-04
	-5.852284969646991e-04
	1.799976081172024e+00
	1.799963116248525e+00
	1.799989142062898e+00
	1.799999932497577e+00
	1.799999621062957e+00
	1.799999990655963e+00
	-6.501551072167238e-08
	-1.891524690518639e-07
	-2.459915117295910e-08
	1.800087385423836e+00
	1.800006097363174e+00
	1.800084362228497e+00
	-1.546901521639885e-04
	-1.681567040059731e-04
	-7.236833085168850e-05
	5.928897344757877e-01
	6.014691897142482e-01
	1.800000000000000e+00
	1.800000000000000e+00
	-5.454448664260481e-08
	-1.115176231101557e-05
	-2.827110262054375e-08
	0.000000000000000e+00
	2.322177233766729e-14
	1.800356418178038e+00
	1.799999519108976e+00
	-1.918289247261792e-01
	3.712035111661691e-01
	1.165705034459979e+00
	6.961673496505001e-01
	4.012315447592705e-01
	1.123093321750899e-01

 16	9.027140962663149e-11
	0.000000000000000e+00
	1.800000032447003e+00
	1.800000091036901e+00
	1.800000000833531e+00
	4.717336457488392e-06
	-4.863164960670392e-06
	7.836205868923333e-06
	1.800000005771156e+00
	1.800000007999775e+00
	1.800000002638775e+00
	1.799998927373823e+00
	1.799998297846794e+00
	1.799999261846557e+00
	-3.866980288391633e-06
	9.527000864411033e-06
	-1.486294655942104e-05
	4.787427585907653e-06
	7.486435364275964e-06
	1.940658475033173e-06
	1.800000014898115e+00
	1.800000003246351e+00
	1.800000086298931e+00
	6.089953121055525e-10
	9.125419475782253e-10
	2.860698608385584e-10
	1.758783990142461e-04
	1.144764301943325e-04
	7.877218476332482e-05
	1.800010197321921e+00
	1.800016186618520e+00
	1.800003991481417e+00
	1.799999949067626e+00
	1.800000053249676e+00
	1.799999950132326e+00
	2.053904688737321e-08
	7.799503012461285e-08
	2.349734407690866e-09
	1.799882572164306e+00
	1.799916958119805e+00
	1.799900751964118e+00
	9.445046550067260e-05
	7.903913889501455e-05
	4.217848043259782e-05
	6.412983953671024e-01
	6.408998998844062e-01
	1.800000000000000e+00
	1.800000000000000e+00
	-3.584588162776348e-06
	8.017801957164184e-06
	1.639891791396184e-08
	0.000000000000000e+00
	2.120629731531298e-14
	1.799993183798054e+00
	1.799999380178376e+00
	-2.057722662945260e-01
	3.712035339169135e-01
	1.121754971921087e+00
	6.382933845810098e-01
	4.012293828287229e-01
	-3.060807614445894e-02

 17	1.291691859465306e-10
	0.000000000000000e+00
	1.799999967802589e+00
	1.799999909442110e+00
	1.799999999296830e+00
	-3.060272266356915e-06
	5.867919162557648e-06
	-5.115058741033150e-06
	1.799999994215203e+00
	1.799999991982467e+00
	1.799999997356340e+00
	1.800001151948397e+00
	1.800001895732237e+00
	1.800000777377454e+00
	1.927101477695674e-05
	2.031699303727420e-05
	2.239178119647885e-05
	-4.077634094844322e-06
	-6.443426706074926e-06
	-1.584468939987459e-06
	1.799999985306786e+00
	1.799999996789079e+00
	1.799999914134967e+00
	-6.005595486313479e-10
	-8.906053868966727e-10
	-2.816405156393396e-10
	-3.287521967074896e-05
	4.545621569811142e-06
	1.512496256866717e-05
	1.799994307951961e+00
	1.799990641725573e+00
	1.799998263082404e+00
	1.800000059284757e+00
	1.799999959713464e+00
	1.800000053974554e+00
	-1.901061502925468e-08
	-7.419107948640740e-08
	-1.584172592491491e-09
	1.800125144664215e+00
	1.800103149814040e+00
	1.800102970438304e+00
	-8.578033238137126e-05
	-5.852724326081338e-05
	-3.780588055462563e-05
	6.411409947432922e-01
	6.415152111069176e-01
	1.800000000000000e+00
	1.800000000000000e+00
	4.090903822619174e-06
	-7.203722914590144e-06
	-1.601851719380842e-08
	0.000000000000000e+00
	-1.835207451371777e-14
	1.800006222780649e+00
	1.799999334422037e+00
	-2.041970856048098e-01
	3.712035293587431e-01
	1.137740301207445e+00
	6.447807371952480e-01
	4.012293749299347e-01
	1.102103349370272e-02

 18	1.757813102589414e-10
	0.000000000000000e+00
	1.800000031973696e+00
	1.800000090104055e+00
	1.800000000587471e+00
	2.364996557219917e-06
	-5.964247153978828e-06
	3.899970743330390e-06
	1.800000005797328e+00
	1.800000008033874e+00
	1.800000002648307e+00
	1.799998954980581e+00
	1.799998373392012e+00
	1.799999276328424e+00
	-2.615808282484906e-05
	-3.376520268276971e-05
	-2.564918753232595e-05
	3.745988582703321e-06
	5.955876829317642e-06
	1.417732709288716e-06
	1.800000014434394e+00
	1.800000003005521e+00
	1.800000085412550e+00
	6.104333109547807e-10
	9.147249612222099e-10
	2.864008387486815e-10
	-8.095809007727193e-06
	-3.048750548316796e-05
	-4.559575631497208e-05
	1.800005155141838e+00
	1.800008546729603e+00
	1.800001467619784e+00
	1.799999939215489e+00
	1.800000035956102e+00
	1.799999945336453e+00
	1.844403443024934e-08
	7.278808580239542e-08
	1.300096478067342e-09
	1.799872587861153e+00
	1.799890702086900e+00
	1.799896011966598e+00
	8.094608748798865e-05
	5.110382226584763e-05
	3.536273532777915e-05
	6.427104632347947e-01
	6.425382717968283e-01
	1.800000000000000e+00
	1.800000000000000e+00
	-4.817371908973078e-06
	6.933620591605189e-06
	1.586400491370842e-08
	0.000000000000000e+00
	-5.327225194886612e-15
	1.799999890081823e+00
	1.799999383274631e+00
	-2.050750602024588e-01
	3.712035333999735e-01
	1.135486300791350e+00
	6.412176982425021e-01
	4.012294223238633e-01
	-4.480445821904294e-03

 19	2.580340940380784e-10
	0.000000000000000e+00
	1.799999968063301e+00
	1.799999909947041e+00
	1.799999999432955e+00
	-2.258679838398058e-06
	5.958635603325207e-06
	-3.605406620352871e-06
	1.799999994194802e+00