Title: **.subckt tb_fd
Date: Mon Mar 29 19:06:47  2021
Plotname: Transient Analysis
Flags: real
No. Variables: 49
No. Points: 2485
Variables:
	0	time	time
	1	v(in)	voltage
	2	v(m.x1.xm1.msky130_fd_pr__pfet_01v8#body)	voltage
	3	v(m.x1.xm1.msky130_fd_pr__pfet_01v8#dbody)	voltage
	4	v(m.x1.xm1.msky130_fd_pr__pfet_01v8#sbody)	voltage
	5	v(m.x1.xm2.msky130_fd_pr__nfet_01v8#body)	voltage
	6	v(m.x1.xm2.msky130_fd_pr__nfet_01v8#dbody)	voltage
	7	v(m.x1.xm2.msky130_fd_pr__nfet_01v8#sbody)	voltage
	8	v(m.x1.xm3.msky130_fd_pr__pfet_01v8#body)	voltage
	9	v(m.x1.xm3.msky130_fd_pr__pfet_01v8#dbody)	voltage
	10	v(m.x1.xm3.msky130_fd_pr__pfet_01v8#sbody)	voltage
	11	v(m.x1.xm4.msky130_fd_pr__nfet_01v8#body)	voltage
	12	v(m.x1.xm4.msky130_fd_pr__nfet_01v8#dbody)	voltage
	13	v(m.x1.xm4.msky130_fd_pr__nfet_01v8#sbody)	voltage
	14	v(m.x1.xm5.msky130_fd_pr__pfet_01v8#body)	voltage
	15	v(m.x1.xm5.msky130_fd_pr__pfet_01v8#dbody)	voltage
	16	v(m.x1.xm5.msky130_fd_pr__pfet_01v8#sbody)	voltage
	17	v(m.x1.xm6.msky130_fd_pr__nfet_01v8#body)	voltage
	18	v(m.x1.xm6.msky130_fd_pr__nfet_01v8#dbody)	voltage
	19	v(m.x1.xm6.msky130_fd_pr__nfet_01v8#sbody)	voltage
	20	v(m.x1.xm7.msky130_fd_pr__pfet_01v8#body)	voltage
	21	v(m.x1.xm7.msky130_fd_pr__pfet_01v8#dbody)	voltage
	22	v(m.x1.xm7.msky130_fd_pr__pfet_01v8#sbody)	voltage
	23	v(m.x1.xm8.msky130_fd_pr__nfet_01v8#body)	voltage
	24	v(m.x1.xm8.msky130_fd_pr__nfet_01v8#dbody)	voltage
	25	v(m.x1.xm8.msky130_fd_pr__nfet_01v8#sbody)	voltage
	26	v(m.x1.xm9.msky130_fd_pr__pfet_01v8#body)	voltage
	27	v(m.x1.xm9.msky130_fd_pr__pfet_01v8#dbody)	voltage
	28	v(m.x1.xm9.msky130_fd_pr__pfet_01v8#sbody)	voltage
	29	v(m.x1.xm10.msky130_fd_pr__nfet_01v8#body)	voltage
	30	v(m.x1.xm10.msky130_fd_pr__nfet_01v8#dbody)	voltage
	31	v(m.x1.xm10.msky130_fd_pr__nfet_01v8#sbody)	voltage
	32	v(m.x1.xm11.msky130_fd_pr__pfet_01v8#body)	voltage
	33	v(m.x1.xm11.msky130_fd_pr__pfet_01v8#dbody)	voltage
	34	v(m.x1.xm11.msky130_fd_pr__pfet_01v8#sbody)	voltage
	35	v(m.x1.xm12.msky130_fd_pr__nfet_01v8#body)	voltage
	36	v(m.x1.xm12.msky130_fd_pr__nfet_01v8#dbody)	voltage
	37	v(m.x1.xm12.msky130_fd_pr__nfet_01v8#sbody)	voltage
	38	v(out)	voltage
	39	v(vdd)	voltage
	40	i(vdd)	current
	41	i(vin)	current
	42	v(vss)	voltage
	43	i(vss)	current
	44	v(x1.clkb)	voltage
	45	v(x1.net1)	voltage
	46	v(x1.net2)	voltage
	47	v(x1.net3)	voltage
	48	v(x1.out1)	voltage
Values:
 0	0.000000000000000e+00
	0.000000000000000e+00
	1.799999999787754e+00
	1.799999999848897e+00
	1.799999999893877e+00
	1.989480394162864e-14
	4.972724644517753e-14
	9.957165376977793e-15
	1.799999999959435e+00
	1.799999999934737e+00
	1.799999999957038e+00
	1.119798555939360e-11
	5.638782378987587e-12
	2.795517425182350e-11
	1.799999999985917e+00
	1.799999999969153e+00
	1.799999999992959e+00
	1.182527948344148e-11
	2.714290092505146e-11
	5.912856854353307e-12
	1.799999999976195e+00
	1.799999999964292e+00
	1.799999999964292e+00
	2.123047420350433e-11
	3.184571128136683e-11
	3.184571132914614e-11
	1.799999999994226e+00
	1.799999999985566e+00
	1.799999999997113e+00
	4.713706988047172e-09
	2.390341916121082e-09
	2.356853676324789e-09
	1.800000000000000e+00
	1.800000000000000e+00
	1.800000000000000e+00
	2.250871227487539e-11
	5.627051327530831e-11
	1.125435613715152e-11
	8.485726766626536e-01
	1.800000000000000e+00
	-2.325825122830028e-05
	0.000000000000000e+00
	0.000000000000000e+00
	-2.857273053446000e-15
	1.799999993154331e+00
	1.562085554241754e-03
	8.936009664502992e-01
	8.485726747513631e-01
	1.338897750127208e+00

 1	6.000000000000001e-14
	1.800000000000000e-02
	1.800170684977666e+00
	1.800300569710162e+00
	1.800070680932425e+00
	2.574761961291939e-04
	3.340770531349652e-04
	1.146863745567212e-04
	1.801165894008102e+00
	1.800742061058524e+00
	1.800705269774048e+00
	1.224958176081714e-03
	7.670412596595530e-04
	6.850880894112427e-04
	1.800329465488486e+00
	1.800873505796784e+00
	1.800136502688564e+00
	2.453697066132007e-04
	5.606620027991949e-04
	1.096152043630366e-04
	1.801328828652221e+00
	1.801310551150800e+00
	1.801039997131202e+00
	6.139698448804926e-04
	7.304529427142187e-04
	5.646089698033985e-04
	1.800277732230983e+00
	1.800298464544446e+00
	1.800115838860945e+00
	1.406646178560497e-04
	1.527773274126037e-04
	6.366090619507316e-05
	1.800416049071322e+00
	1.801395743294265e+00
	1.800181579658496e+00
	1.281266138993285e-03
	1.059464321115686e-03
	5.721437297552586e-04
	8.520419448653959e-01
	1.800000000000000e+00
	4.214911490099879e-04
	-6.934190073419576e-04
	0.000000000000000e+00
	-5.671820706241310e-15
	1.806841549351605e+00
	3.553996664815135e-03
	8.950969810174524e-01
	8.540889283684714e-01
	1.340091575714116e+00

 2	1.200000000000000e-13
	3.600000000000000e-02
	1.800173423773407e+00
	1.800281037153627e+00
	1.800083701906056e+00
	2.325119225308956e-04
	3.072247097369505e-04
	1.160396988141864e-04
	1.801259890835526e+00
	1.800812716766323e+00
	1.800805747584722e+00
	1.316574143841241e-03
	8.371082702967566e-04
	7.600934817613564e-04
	1.800378513526706e+00
	1.800898946818611e+00
	1.800179630498464e+00
	2.452091283628340e-04
	5.374284693563519e-04
	1.210490141592799e-04
	1.801584233710388e+00
	1.801479746095156e+00
	1.801238109124914e+00
	5.977025231795972e-04
	7.131494498021501e-04
	5.739393825437145e-04
	1.800304670934348e+00
	1.800312874163719e+00
	1.800145611635630e+00
	1.357391890793452e-04
	1.412638271367367e-04
	6.729843694508544e-05
	1.800536543542607e+00
	1.801554737809100e+00
	1.800252889043550e+00
	1.384195780693195e-03
	1.126201874578320e-03
	6.786264062881652e-04
	8.551571365233319e-01
	1.800000000000000e+00
	4.411420385295184e-04
	-7.158214081586945e-04
	0.000000000000000e+00
	-1.096581262548094e-14
	1.812908544973956e+00
	5.059696986336147e-03
	8.963346520418840e-01
	8.587502317605533e-01
	1.341010994361252e+00

 3	2.400000000000000e-13
	7.200000000000001e-02
	1.800159672436960e+00
	1.800256864843354e+00
	1.800082929817798e+00
	2.101810241970920e-04
	2.771587092983306e-04
	1.065439242951669e-04
	1.801251578437001e+00
	1.800811401865665e+00
	1.800818210121160e+00
	1.301913659382169e-03
	8.321883171032438e-04
	7.586725181083220e-04
	1.800377814040731e+00
	1.800847005282673e+00
	1.800195064460731e+00
	2.249001243278190e-04
	4.857397363909471e-04
	1.147723734476430e-04
	1.801771892164047e+00
	1.801547201227360e+00
	1.801331654807184e+00
	5.422822719828354e-04
	6.463555312631875e-04
	5.242957816905397e-04
	1.800293071193696e+00
	1.800292601012635e+00
	1.800151731146433e+00
	1.211830823671517e-04
	1.231372087831667e-04
	6.179457794280413e-05
	1.800608642130561e+00
	1.801592660080542e+00
	1.800307857427000e+00
	1.371194583886806e-03
	1.105914884562756e-03
	6.967459867887981e-04
	8.610757844048557e-01
	1.800000000000000e+00
	4.449119512586128e-04
	-7.108195106873046e-04
	0.000000000000000e+00
	-1.045111601969718e-14
	1.824715769671517e+00
	7.948919120006746e-03
	8.987262664506577e-01
	8.676156038986323e-01
	1.342717414506632e+00

 4	4.800000000000001e-13
	1.440000000000000e-01
	1.800140146204490e+00
	1.800240539232231e+00
	1.800068526703220e+00
	2.013390421707639e-04
	2.661391945388324e-04
	9.971159400938513e-05
	1.801180962905475e+00
	1.800754911967110e+00
	1.800765229355477e+00
	1.243977500749011e-03
	7.810179053618394e-04
	7.208969613402144e-04
	1.800334308718677e+00
	1.800760647824330e+00
	1.800164357620553e+00
	2.061495304485628e-04
	4.440980605460235e-04
	1.016152023097748e-04
	1.801876095960217e+00
	1.801523137377986e+00
	1.801316692302110e+00
	4.903547975790385e-04
	5.851875354963079e-04
	4.682221895356206e-04
	1.800249540410742e+00
	1.800244683164207e+00
	1.800122689847499e+00
	1.073987820660854e-04
	1.077721325884531e-04
	5.305649134791759e-05
	1.800585036006691e+00
	1.801516400426936e+00
	1.800290981277944e+00
	1.305540965979433e-03
	1.051312009115277e-03
	6.449077584891809e-04
	8.718050744208889e-01
	1.800000000000000e+00
	4.378974715980241e-04
	-6.952907195088612e-04
	0.000000000000000e+00
	-4.660843685012992e-15
	1.847396620740369e+00
	1.338110252893110e-02
	9.034125772485088e-01
	8.837947150203316e-01
	1.345662192002855e+00

 5	9.600000000000002e-13
	2.880000000000000e-01
	1.800099561178357e+00
	1.800191080246462e+00
	1.800052171217203e+00
	1.645500914540833e-04
	2.181426154943256e-04
	8.377498550594927e-05
	1.801102091325936e+00
	1.800698576819991e+00
	1.800732257790637e+00
	1.156370463865742e-03
	7.210478896898949e-04
	6.796816717376183e-04
	1.800272465766524e+00
	1.800554340030317e+00
	1.800140303793866e+00
	1.515282781377704e-04
	3.058962120863866e-04
	7.797630332311119e-05
	1.802336598226290e+00
	1.801583906046295e+00
	1.801434939764999e+00
	3.369876142064730e-04
	4.007035569732267e-04
	3.201603319354582e-04
	1.800169986181635e+00
	1.800151909225824e+00
	1.800088792716040e+00
	6.702803680107457e-05
	6.119830693421258e-05
	3.469376201811055e-05
	1.800652472146013e+00
	1.801477620457533e+00
	1.800325958326036e+00
	1.206417875704996e-03
	9.635021395441104e-04
	6.121191577940130e-04
	8.886906154699236e-01
	1.800000000000000e+00
	4.307547083177224e-04
	-6.639904334273103e-04
	0.000000000000000e+00
	-9.349007570706724e-15
	1.889667887141809e+00
	2.309500856326289e-02
	9.125521934698998e-01
	9.097375659842759e-01
	1.349769701629619e+00

 6	1.920000000000000e-12
	5.760000000000001e-01
	1.800073324867546e+00
	1.800185928673764e+00
	1.800034736461890e+00
	1.703308307308772e-04
	2.269529505201556e-04
	8.372013663229439e-05
	1.801033917086937e+00
	1.800660499488057e+00
	1.800702160677356e+00
	9.466081747425681e-04
	6.101760713026107e-04
	5.771794914115700e-04
	1.800191059502980e+00
	1.800332352585552e+00
	1.800092764720968e+00
	1.035484760066574e-04
	1.854327842852801e-04
	5.003505693892902e-05
	1.802655842693116e+00
	1.801562949663120e+00
	1.801491619922976e+00
	2.001385503726801e-04
	2.321991455665664e-04
	1.937711187588332e-04
	1.800092641350028e+00
	1.800065707880127e+00
	1.800043719015873e+00
	3.909951882717470e-05
	2.943034513565312e-05
	1.862900926308690e-05
	1.800851677354224e+00
	1.801502890711814e+00
	1.800423437002375e+00
	9.306235887696999e-04
	7.900712956847959e-04
	4.589458684367595e-04
	9.109907340691037e-01
	1.800000000000000e+00
	4.238711869426134e-04
	-6.462505776497948e-04
	0.000000000000000e+00
	-5.681483658103587e-15
	1.966702759364714e+00
	4.124337720246167e-02
	9.313339302233113e-01
	9.431041784514429e-01
	1.353558487211066e+00

 7	3.840000000000001e-12
	1.152000000000000e+00
	1.800171094364593e+00
	1.800451065677679e+00
	1.800086772506262e+00
	3.893111570105396e-04
	5.300051354347401e-04
	1.953163341847422e-04
	1.800881912218344e+00
	1.800813060785673e+00
	1.800614448953179e+00
	7.081878911048472e-04
	6.965219545576262e-04
	4.477071750523306e-04
	1.800146676952672e+00
	1.800201280385076e+00
	1.800076323055928e+00
	6.617842129151932e-05
	9.846893295480108e-05
	3.496837836935837e-05
	1.802885846394391e+00
	1.801571165278592e+00
	1.801606947762296e+00
	1.124143826771497e-04
	1.232308454369091e-04
	1.457587227489190e-04
	1.800098588535804e+00
	1.800075721206039e+00
	1.800051786899623e+00
	3.624445479156395e-05
	2.846297405155636e-05
	1.906194089647456e-05
	1.802187982287728e+00
	1.801864879790871e+00
	1.801086991610781e+00
	5.385753489125259e-04
	4.787325904388670e-04
	2.776829133574200e-04
	9.447093900824786e-01
	1.800000000000000e+00
	3.930606506340750e-04
	-7.354755633216576e-04
	0.000000000000000e+00
	-4.388379443902649e-15
	2.088699121836878e+00
	1.053543963680931e-01
	9.677972450803090e-01
	9.800139772859496e-01
	1.357675723103104e+00

 8	6.000000000000000e-12
	1.800000000000000e+00
	1.800225379035506e+00
	1.800661723965690e+00
	1.800111169718689e+00
	4.377883316432758e-04
	6.773991278526369e-04
	2.182033421741532e-04
	1.799765979954143e+00
	1.800429751557143e+00
	1.799578675626782e+00
	8.444922027477711e-04
	8.739016660927737e-04
	2.527545831152774e-04
	1.799783154857678e+00
	1.799756148228634e+00
	1.799890733443334e+00
	-9.522611292238012e-05
	-1.181229164601413e-04
	-4.898088118171283e-05
	1.803178280415614e+00
	1.801450595936726e+00
	1.801621473638632e+00
	-8.375533823086373e-05
	-1.139558415730706e-04
	-2.297910062781447e-05
	1.800009647420195e+00
	1.799986266218903e+00
	1.800002903392432e+00
	3.928651442001519e-06
	-5.169011541807621e-06
	1.150756380757494e-06
	1.802008790528056e+00
	1.800557750590970e+00
	1.801012167804368e+00
	6.044272184164488e-04
	1.776797872769815e-04
	2.942337608649124e-04
	9.671992398043923e-01
	1.800000000000000e+00
	2.386764219916640e-04
	-6.837035983004189e-04
	0.000000000000000e+00
	-8.121690711453133e-15
	2.110589680345363e+00
	2.309235408639401e-01
	9.518033752271314e-01
	9.787191710883252e-01
	1.358379944343979e+00

 9	6.384000000000000e-12
	1.800000000000000e+00
	1.800020418804862e+00
	1.800198113986366e+00
	1.800013463579000e+00
	1.348956373689240e-04
	2.232541882640805e-04
	7.034953701931246e-05
	1.798690607153020e+00
	1.799542031414380e+00
	1.798818981266205e+00
	-3.921605131274259e-05
	1.401724517751798e-04
	-3.133390174852192e-04
	1.799566320544391e+00
	1.799395570406778e+00
	1.799786519027385e+00
	-2.119326889768172e-04
	-3.187305202289326e-04
	-1.050053037218003e-04
	1.799881429956272e+00
	1.799590159414634e+00
	1.799867661000604e+00
	-2.870118375733434e-04
	-3.558150552561232e-04
	-2.045470365351371e-04
	1.799894976319732e+00
	1.799838864787790e+00
	1.799949216576507e+00
	-4.636233261646333e-05
	-7.199091508704181e-05
	-2.278352650436702e-05
	1.799178960287408e+00
	1.798189999151816e+00
	1.799635487763240e+00
	-1.907740333333859e-04
	-5.001414067522629e-04
	-8.886646835809910e-05
	9.624838792472798e-01
	1.800000000000000e+00
	-2.004312961175203e-04
	-3.865259932715452e-05
	0.000000000000000e+00
	-8.160010481986918e-15
	2.072516216684907e+00
	2.394952261564076e-01
	9.295444478298672e-01
	9.626566817753484e-01
	1.354339818886322e+00

 10	7.152000000000000e-12
	1.800000000000000e+00
	1.799998394831458e+00
	1.800160952221298e+00
	1.799996521137167e+00
	9.967201517115543e-05
	1.815832800019113e-04
	4.741314656752584e-05
	1.798658880141236e+00
	1.799482874106492e+00
	1.798814603919306e+00
	-7.062995150486882e-05
	9.248773792909417e-05
	-3.265100042403393e-04
	1.799598753311733e+00
	1.799460057313779e+00
	1.799795691242910e+00
	-1.961938589171283e-04
	-2.847971371117853e-04
	-9.922014045229701e-05
	1.799642406578616e+00
	1.799449886519475e+00
	1.799650188903553e+00
	-2.517634481870063e-05
	-2.014790665772637e-04
	-8.968438157602558e-05
	1.799878282501877e+00
	1.799829104113814e+00
	1.799937787136633e+00
	-5.057417308708140e-05
	-7.316240434014631e-05
	-2.565589051804573e-05
	1.799090731430826e+00
	1.798049431211409e+00
	1.799503722594019e+00
	-2.194179083868011e-04
	-5.334476810964391e-04
	-1.157168147439230e-04
	9.523431576467547e-01
	1.800000000000000e+00
	-2.270127471125996e-04
	-1.364222170485268e-05
	0.000000000000000e+00
	-4.012889738384817e-15
	1.996526999889060e+00
	2.562373522675966e-01
	8.866394794233099e-01
	9.330885399943981e-01
	1.346476756485760e+00

 11	8.688000000000000e-12
	1.800000000000000e+00
	1.800001301410766e+00
	1.800118547405978e+00
	1.800003211655112e+00
	6.616803300597829e-05
	1.282675613480033e-04
	3.563526561022563e-05
	1.798701493557477e+00
	1.799476611455127e+00
	1.798913651450679e+00
	-7.214761614373895e-05
	6.279192811197874e-05
	-2.971879953048533e-04
	1.799688038994956e+00
	1.799629501536739e+00
	1.799846809470976e+00
	-1.572517879001342e-04
	-2.018852526460089e-04
	-7.774987385712765e-05
	1.799950191928688e+00
	1.799790496123787e+00
	1.799895757573972e+00
	-2.987421557560847e-04
	-2.694186883328703e-04
	-2.079166030732604e-04
	1.799904059190132e+00
	1.799861585158060e+00
	1.799953122006074e+00
	-4.257574229089281e-05
	-6.238268897738701e-05
	-2.098179441408151e-05
	1.799377823998592e+00
	1.798339495962885e+00
	1.799726692727972e+00
	-2.163519222282452e-04
	-5.592444952641044e-04
	-1.023222119530118e-04
	9.321494007187714e-01
	1.800000000000000e+00
	-1.930599447372561e-04
	-2.945223552190715e-05
	0.000000000000000e+00
	-5.786929095641380e-17
	1.838963627871739e+00
	2.829238535461891e-01
	8.070058027262891e-01
	8.876603740788459e-01
	1.332050841218671e+00

 12	1.176000000000000e-11
	1.800000000000000e+00
	1.799984657323167e+00
	1.800048390306302e+00
	1.799989883432626e+00
	1.743305986804029e-05
	5.204390442717518e-05
	6.313481020505268e-06
	1.798695287373157e+00
	1.799395813902194e+00
	1.798982603000061e+00
	-1.466051807689029e-04
	-3.362991501546018e-05
	-3.061052466893461e-04
	1.799795261865763e+00
	1.799852033797999e+00
	1.799894410249873e+00
	-1.039599775392196e-04
	-7.760104359442197e-05
	-5.297806686059098e-05
	1.799827561384603e+00
	1.799839305098909e+00
	1.799805610627068e+00
	-1.467072777285331e-04
	-1.023410080033750e-04
	-1.203234952621194e-04
	1.799933038461897e+00
	1.799907408087794e+00
	1.799965324237276e+00
	-2.848960548976426e-05
	-4.022626058116079e-05
	-1.459272739482148e-05
	1.799281147769758e+00
	1.798310297879139e+00
	1.799603830972538e+00
	-2.699586694188219e-04
	-6.569844857130715e-04
	-1.406689865146725e-04
	9.012171088271860e-01
	1.800000000000000e+00
	-2.031676579810210e-04
	-1.310562333091548e-05
	0.000000000000000e+00
	-3.592842711709621e-15
	1.502657359554697e+00
	3.159118882626100e-01
	6.689356534934033e-01
	8.445614798118346e-01
	1.310386653554572e+00

 13	1.790400000000000e-11
	1.800000000000000e+00
	1.799962471488762e+00
	1.799914770982677e+00
	1.799983706664956e+00
	-3.310869528811637e-05
	-6.809632728807101e-05
	-1.410669526941816e-05
	1.798892512777793e+00
	1.799387350205488e+00
	1.799265059927743e+00
	-2.055837808397982e-04
	-1.507317446965819e-04
	-2.389600340352784e-04
	1.800008597450446e+00
	1.800265798905003e+00
	1.800007021830093e+00
	3.608206190681116e-06
	1.509164173277167e-04
	2.673807088296618e-06
	1.800223283857011e+00
	1.800401535526887e+00
	1.800108963539142e+00
	-4.385503850059379e-04
	-6.645542997274836e-05
	-2.347352109901930e-04
	1.799974205697206e+00
	1.799962915687293e+00
	1.799988200122262e+00
	-1.282158673037337e-05
	-1.826447325129973e-05
	-6.089400783809145e-06
	1.799563249096423e+00
	1.798789863809022e+00
	1.799817463325144e+00
	-3.062115800027376e-04
	-7.735943870833602e-04
	-1.474320203333416e-04
	8.647224923021712e-01
	1.800000000000000e+00
	-1.498358463641672e-04
	-3.717976279858796e-05
	0.000000000000000e+00
	-3.928199996186543e-15
	7.940389073361276e-01
	3.118348377925039e-01
	4.734840222111736e-01
	9.166897734329181e-01
	1.286062453218386e+00

 14	3.019200000000001e-11
	1.800000000000000e+00
	1.799964203031929e+00
	1.799901543501399e+00
	1.799979639954681e+00
	-6.288905876596746e-05
	-1.001553744940441e-04
	-3.387799615456723e-05
	1.799927052183556e+00
	1.799874751031048e+00
	1.799866622117992e+00
	-8.378303460697830e-05
	-1.143018769099319e-04
	-1.170417668189742e-04
	1.800140019612612e+00
	1.800454159932230e+00
	1.800067155969256e+00
	5.085454389838439e-05
	2.006789451767068e-04
	2.453229672521554e-05
	1.800073289547246e+00
	1.800392702767483e+00
	1.799987114460299e+00
	1.786458320031270e-04
	2.606336495719460e-04
	7.408001077623680e-05
	1.799990426625303e+00
	1.799999434657858e+00
	1.799994102639105e+00
	-2.702616884179469e-06
	1.342956866457259e-06
	-1.680562622568615e-06
	1.799944757420725e+00
	1.799966803678713e+00
	1.799936288067572e+00
	-3.479816929136728e-04
	-2.919384156887036e-04
	-1.797381232712751e-04
	8.296045459315664e-01
	1.800000000000000e+00
	-7.629457084525754e-05
	-3.731626961035491e-06
	0.000000000000000e+00
	-2.907084837612539e-15
	5.950439678279307e-02
	1.991183731083282e-01
	2.658295953687833e-01
	1.317083683606736e+00
	1.274338644171632e+00

 15	5.476800000000001e-11
	1.800000000000000e+00
	1.800015597686039e+00
	1.800006209050422e+00
	1.800010228267210e+00
	-1.369367786789625e-05
	-1.103700245219510e-05
	-4.441909447835467e-06
	1.799926074913506e+00
	1.799969670270035e+00
	1.799956953512230e+00
	-4.605515150387857e-05
	-2.353109935205085e-05
	-3.614046023265893e-05
	1.800296181191811e+00
	1.800173801447278e+00
	1.800150874728174e+00
	-1.689011406091278e-05
	-2.164214062794678e-05
	-7.530082829854447e-06
	1.800131869669801e+00
	1.800119760983964e+00
	1.800112965498280e+00
	-1.266546206927962e-04
	-7.253867019727824e-05
	-4.943960984083611e-05
	1.800019310746057e+00
	1.800030771135910e+00
	1.800010748993245e+00
	7.984722856432152e-06
	1.288974752667238e-05
	4.318214981273928e-06
	1.800028358067838e+00
	1.799964936393744e+00
	1.800050149450731e+00
	2.985460826804439e-04
	2.138073870327346e-04
	1.547919557807967e-04
	8.263640195030415e-01
	1.800000000000000e+00
	-1.125501294096248e-05
	-3.312190550725416e-06
	0.000000000000000e+00
	-2.685968580797699e-15
	-2.842725463112825e-02
	7.031832465216288e-02
	1.058805535643313e-01
	1.753632488267384e+00
	1.304124682311378e+00

 16	9.269205609687848e-11
	1.800000000000000e+00
	1.799990312218133e+00
	1.799971963117454e+00
	1.799992738730095e+00
	-1.430146718247401e-05
	-2.652602253667260e-05
	-9.558696041389572e-06
	1.800060259630528e+00
	1.799998688744775e+00
	1.799995210210837e+00
	-6.791274875696273e-06
	-2.647229048919291e-05
	-2.880939064012362e-05
	1.799751201069273e+00
	1.799885351396387e+00
	1.799873012982093e+00
	2.265112658665958e-06
	2.627083801206496e-05
	2.144588257313120e-07
	1.799887872614625e+00
	1.799925505098274e+00
	1.799899052461795e+00
	1.433838822424647e-04
	9.281539853438133e-05
	5.897113750779186e-05
	1.799994198670116e+00
	1.800004475835376e+00
	1.799996015739984e+00
	-1.179704197114368e-06
	3.244061077699876e-06
	-9.136575115635533e-07
	1.799981177876990e+00
	1.800059262501054e+00
	1.799954683824098e+00
	-2.853973615842245e-04
	-1.879192499848006e-04
	-1.480876678899001e-04
	8.306117016732264e-01
	1.800000000000000e+00
	-2.194325656820761e-05
	1.892347554514376e-06
	0.000000000000000e+00
	-8.246735644357444e-15
	1.993829787202646e-02
	9.210392195173988e-03
	5.157701349207956e-03
	1.805595494805189e+00
	1.355008980091094e+00

 17	1.423597520592365e-10
	1.800000000000000e+00
	1.800020980459714e+00
	1.800030227679009e+00
	1.800012897086460e+00
	1.078262092027113e-05
	2.139218663575122e-05
	7.793149079240656e-06
	1.799926941287775e+00
	1.799991476203321e+00
	1.799997461318379e+00
	3.545618089279192e-06
	2.147517647233659e-05
	2.626213652082693e-05
	1.800244568932551e+00
	1.800107686147330e+00
	1.800124738122098e+00
	-3.531284952544405e-06
	-2.847249384606439e-05
	-8.470619494282171e-07
	1.800109581713155e+00
	1.800068419518146e+00
	1.800099856455432e+00
	-1.496622642754636e-04
	-9.749795051744247e-05
	-6.193299287303826e-05
	1.800015376295161e+00
	1.800021692254437e+00
	1.800008765369835e+00
	5.888291604920056e-06
	8.402463570627542e-06
	3.266872884009368e-06
	1.800013552556405e+00
	1.799927375301769e+00
	1.800042635462762e+00
	2.765261717907721e-04
	1.728346853032967e-04
	1.435577822151571e-04
	8.313084753113901e-01
	1.800000000000000e+00
	1.781419544030771e-07
	-2.567253466627752e-06
	0.000000000000000e+00
	-4.482894133014362e-15
	-1.505496435269072e-02
	-1.956494460656090e-03
	2.143654337463663e-03
	1.796574505253177e+00
	1.404164766284221e+00

 18	2.353625758588019e-10
	1.800000000000000e+00
	1.799986817207666e+00
	1.799974653104956e+00
	1.799991007854269e+00
	-9.878490036000140e-06
	-1.998050052387591e-05
	-7.338398159512545e-06
	1.800077963169387e+00
	1.800011945582654e+00
	1.800004676798452e+00
	-3.076271272411648e-06
	-2.028102867972301e-05
	-2.632516071592922e-05
	1.799757306828741e+00
	1.799894959595709e+00
	1.799876270270869e+00
	3.639574801000295e-06
	2.907153602102017e-05
	9.008393085144523e-07
	1.799891728647501e+00
	1.799933919832231e+00
	1.799901545697516e+00
	1.525422675598433e-04
	9.946903639231327e-05
	6.377230196369825e-05
	1.799990253425412e+00
	1.799992817974129e+00
	1.799994053574621e+00
	-3.249470682336431e-06
	-2.145040990874243e-06
	-1.946627464719468e-06
	1.799988719512678e+00
	1.800078383621106e+00
	1.799958524027035e+00
	-2.731134570588073e-04
	-1.665115804937376e-04
	-1.418024825387451e-04
	8.349125883634337e-01
	1.800000000000000e+00
	-1.970472767189035e-05
	2.811110333054114e-06
	0.000000000000000e+00
	-6.351815368165273e-15
	1.324575955311715e-02
	3.964378895662956e-03
	2.385463003224988e-04
	1.802462597678531e+00
	1.453547744379239e+00

 19	3.353625758588019e-10
	1.800000000000000e+00
	1.800014865087525e+00
	1.800025152190075e+00
	1.800009828403370e+00
	9.031688682353594e-06
	1.854417747674861e-05
	6.912568639363632e-06
	1.799917849061005e+00
	1.799984936440467e+00
	1.799993312319286e+00
	2.352201072317214e-06
	1.890611809230183e-05
	2.603489361898801e-05
	1.800241528603957e+00
	1.800103268337139e+00
	1.800123082340551e+00
	-3.782879835493027e-06
	-2.951660862143845e-05
	-9.721306901964692e-07
	1.800107554233227e+00
	1.800064553749142e+00
	1.800097987755962e+00
	-1.546942851961861e-04
	-1.009054221398850e-04
	-6.487595528309260e-05
	1.800011213062127e+00
	1.800011209428694e+00
	1.800006676491905e+00
	3.943930263303488e-06
	3.859151416082300e-06
	2.293284227491981e-06
	1.800009433902620e+00
	1.799916937880904e+00
	1.800040531413502e+00
	2.700924374791623e-04
	1.612471626659587e-04
	1.402471543791122e-04
	8.345196157289818e-01
	1.800000000000000e+00
	-2.642621026033298e-07
	-3.022110117718813e-06
	0.000000000000000e+00
	-3.588253698959634e-15
	-1.149342610433521e-02
	-2.763051563490140e-03
	7.723693560486602e-04
	1.798104630553907e+00
	1.468346930732944e+00

 20	4.353625758588019e-10
	1.800000000000000e+00
	1.799986417911860e+00
	1.799976387066499e+00
	1.799990818034542e+00
	-8.341339646778218e-06
	-1.732097705589357e-05
	-6.565123685441082e-06
	1.800085764922001e+00
	1.800017755931097e+00
	1.800008332462516e+00
	-1.816561500871222e-06
	-1.776030623634840e-05
	-2.591579755752948e-05
	1.799759520040600e+00
	1.799898176542974e+00
	1.799877506735923e+00
	3.840494105959568e-06
	2.982937886121821e-05
	1.000561413601137e-06
	1.799893099625282e+00
	1.799936671924212e+00
	1.799902607371601e+00
	1.566041434557563e-04
	1.021311106289657e-04
	6.595222488428492e-05
	1.799989524888372e+00
	1.799990496423324e+00
	1.799993695780838e+00
	-3.589416874345118e-06
	-3.132228461249603e-06
	-2.115410252455470e-06
	1.799992182084111e+00
	1.800087154866343e+00
	1.799960297385964e+00
	-2.676365090226368e-04
	-1.567213605372431e-04
	-1.389749670287811e-04
	8.357908081069451e-01
	1.800000000000000e+00
	-1.891750816206822e-05
	3.201655109696086e-06
	0.000000000000000e+00
	-3.007816748557099e-15
	1.018421454876071e-02
	3.064146907635362e-03
	-2.749760716547036e-04
	1.801431984237158e+00
	1.474300671007605e+00

 21	5.353625758588020e-10
	1.800000000000000e+00
	1.800013194102570e+00
	1.800022567711732e+00
	1.800008983251701e+00
	7.666977777850266e-06
	1.615162989919836e-05
	6.225785280411446e-06
	1.799911038045553e+00
	1.799979807088595e+00
	1.799990220534216e+00
	1.280505946590544e-06
	1.666011934383476e-05
	2.578579784240787e-05
	1.800239733824712e+00
	1.800100737361799e+00
	1.800122055732976e+00
	-3.869110417118309e-06
	-3.005820682051570e-05
	-1.014486378592307e-06
	1.800106393918337e+00
	1.800062383555981e+00
	1.800096947093609e+00
	-1.582442799176987e-04
	-1.031523528851329e-04
	-6.684901392004933e-05
	1.800010387977153e+00
	1.800009452380652e+00
	1.800006257469828e+00
	3.585522774491021e-06
	3.128406284040917e-06
	2.112878721142797e-06
	1.800006399051342e+00
	1.799909253471641e+00
	1.800038972780852e+00
	2.652931710086426e-04
	1.526503836492875e-04
	1.377595982278108e-04
	8.349344389173287e-01
	1.800000000000000e+00
	-8.670197722479567e-07
	-3.361546607937281e-06
	0.000000000000000e+00
	-1.067962433304271e-15
	-8.859963473483969e-03
	-2.459790526760221e-03
	7.004938611380380e-04
	1.798900586992837e+00
	1.474285485972840e+00

 22	6.353625758588019e-10
	1.800000000000000e+00
	1.799987382803822e+00
	1.799978507589382e+00
	1.799991309795864e+00
	-7.069056687587355e-06
	-1.508331378930069e-05
	-5.924781440717313e-06
	1.800091763919779e+00
	1.800022367598680e+00
	1.800011016098491e+00
	-8.255093456540028e-07
	-1.566325144922411e-05
	-2.570838734872206e-05
	1.799760945288174e+00
	1.799900159090091e+00
	1.799878348050060e+00
	3.865421646364085e-06
	3.021906325877428e-05
	1.012256614762624e-06
	1.799894027122766e+00
	1.799938362195154e+00
	1.799903450277100e+00
	1.596692399523880e-04
	1.040140622448520e-04
	6.763508130145526e-05
	1.799989848798971e+00
	1.799991003127356e+00
	1.799993864059429e+00
	-3.453091876806919e-06
	-2.924657213534097e-06
	-2.046087971382858e-06
	1.799994843072930e+00
	1.800093889224050e+00
	1.799961668325767e+00
	-2.633842870815426e-04
	-1.491473004226319e-04
	-1.367619203993215e-04
	8.357623341101077e-01
	1.800000000000000e+00
	-1.834527606532632e-05
	3.500224914674341e-06
	0.000000000000000e+00
	-2.300022677062486e-15
	7.836131575276814e-03
	2.646301097817223e-03
	-3.551570088535487e-04
	1.800834152763214e+00
	1.475771578776030e+00

 23	7.353625758588019e-10
	1.800000000000000e+00
	1.800012140110490e+00
	1.800020520768923e+00
	1.800008447204856e+00
	6.486844034897041e-06
	1.407581802158885e-05
	5.631735702298198e-06
	1.799905771460570e+00
	1.799975680452645e+00
	1.799987921516821e+00
	3.919291731400311e-07
	1.473003502588778e-05
	2.564702111727024e-05
	1.800238551640582e+00
	1.800099153183170e+00
	1.800121336389729e+00
	-3.838700868166580e-06
	-3.032797036047274e-05
	-9.985127788756940e-07
	1.800105626849300e+00
	1.800061050207731e+00
	1.800096212306838e+00
	-1.609036744237601e-04
	-1.047399656583613e-04
	-6.831254574480662e-05
	1.800009978813022e+00
	1.800008688589121e+00
	1.800006046660005e+00
	3.411245591317856e-06
	2.813628573828812e-06
	2.024603463698212e-06
	1.800004066783350e+00
	1.799903354401990e+00
	1.800037766871414e+00
	2.615617116879371e-04
	1.459938780862388e-04
	1.358078054795512e-04
	8.350570723412256e-01
	1.800000000000000e+00
	-1.371610176117977e-06
	-3.623054722991474e-06
	0.000000000000000e+00
	-6.056102613751640e-15
	-6.830562938635193e-03
	-2.108736674499657e-03
	7.358797036485648e-04
	1.799363260019682e+00
	1.474798259269048e+00

 24	8.353625758588019e-10
	1.800000000000000e+00
	1.799988313574508e+00
	1.799980387332943e+00
	1.799991783972029e+00
	-5.966651514850413e-06
	-1.314988197216662e-05
	-5.369797634188149e-06
	1.800096390631687e+00
	1.800026068116192e+00