Title: **.subckt tb_pfd
Date: Tue Mar 30 15:07:35  2021
Plotname: Transient Analysis
Flags: real
No. Variables: 73
No. Points: 2186
Variables:
	0	time	time
	1	v(down)	voltage
	2	v(downb)	voltage
	3	v(fdiv)	voltage
	4	v(fref)	voltage
	5	v(m.x1.xm1.msky130_fd_pr__pfet_01v8#body)	voltage
	6	v(m.x1.xm1.msky130_fd_pr__pfet_01v8#dbody)	voltage
	7	v(m.x1.xm1.msky130_fd_pr__pfet_01v8#sbody)	voltage
	8	v(m.x1.xm2.msky130_fd_pr__nfet_01v8#body)	voltage
	9	v(m.x1.xm2.msky130_fd_pr__nfet_01v8#dbody)	voltage
	10	v(m.x1.xm2.msky130_fd_pr__nfet_01v8#sbody)	voltage
	11	v(m.x1.xm3.msky130_fd_pr__nfet_01v8#body)	voltage
	12	v(m.x1.xm3.msky130_fd_pr__nfet_01v8#dbody)	voltage
	13	v(m.x1.xm3.msky130_fd_pr__nfet_01v8#sbody)	voltage
	14	v(m.x1.xm4.msky130_fd_pr__pfet_01v8#body)	voltage
	15	v(m.x1.xm4.msky130_fd_pr__pfet_01v8#dbody)	voltage
	16	v(m.x1.xm4.msky130_fd_pr__pfet_01v8#sbody)	voltage
	17	v(m.x1.xm5.msky130_fd_pr__nfet_01v8#body)	voltage
	18	v(m.x1.xm5.msky130_fd_pr__nfet_01v8#dbody)	voltage
	19	v(m.x1.xm5.msky130_fd_pr__nfet_01v8#sbody)	voltage
	20	v(m.x1.xm6.msky130_fd_pr__nfet_01v8#body)	voltage
	21	v(m.x1.xm6.msky130_fd_pr__nfet_01v8#dbody)	voltage
	22	v(m.x1.xm6.msky130_fd_pr__nfet_01v8#sbody)	voltage
	23	v(m.x1.xm7.msky130_fd_pr__pfet_01v8#body)	voltage
	24	v(m.x1.xm7.msky130_fd_pr__pfet_01v8#dbody)	voltage
	25	v(m.x1.xm7.msky130_fd_pr__pfet_01v8#sbody)	voltage
	26	v(m.x1.xm8.msky130_fd_pr__nfet_01v8#body)	voltage
	27	v(m.x1.xm8.msky130_fd_pr__nfet_01v8#dbody)	voltage
	28	v(m.x1.xm8.msky130_fd_pr__nfet_01v8#sbody)	voltage
	29	v(m.x1.xm9.msky130_fd_pr__pfet_01v8#body)	voltage
	30	v(m.x1.xm9.msky130_fd_pr__pfet_01v8#dbody)	voltage
	31	v(m.x1.xm9.msky130_fd_pr__pfet_01v8#sbody)	voltage
	32	v(m.x1.xm10.msky130_fd_pr__nfet_01v8#body)	voltage
	33	v(m.x1.xm10.msky130_fd_pr__nfet_01v8#dbody)	voltage
	34	v(m.x1.xm10.msky130_fd_pr__nfet_01v8#sbody)	voltage
	35	v(m.x1.xm11.msky130_fd_pr__pfet_01v8#body)	voltage
	36	v(m.x1.xm11.msky130_fd_pr__pfet_01v8#dbody)	voltage
	37	v(m.x1.xm11.msky130_fd_pr__pfet_01v8#sbody)	voltage
	38	v(m.x1.xm12.msky130_fd_pr__nfet_01v8#body)	voltage
	39	v(m.x1.xm12.msky130_fd_pr__nfet_01v8#dbody)	voltage
	40	v(m.x1.xm12.msky130_fd_pr__nfet_01v8#sbody)	voltage
	41	v(m.x1.xm13.msky130_fd_pr__pfet_01v8#body)	voltage
	42	v(m.x1.xm13.msky130_fd_pr__pfet_01v8#dbody)	voltage
	43	v(m.x1.xm13.msky130_fd_pr__pfet_01v8#sbody)	voltage
	44	v(m.x1.xm14.msky130_fd_pr__nfet_01v8#body)	voltage
	45	v(m.x1.xm14.msky130_fd_pr__nfet_01v8#dbody)	voltage
	46	v(m.x1.xm14.msky130_fd_pr__nfet_01v8#sbody)	voltage
	47	v(m.x1.xm15.msky130_fd_pr__pfet_01v8#body)	voltage
	48	v(m.x1.xm15.msky130_fd_pr__pfet_01v8#dbody)	voltage
	49	v(m.x1.xm15.msky130_fd_pr__pfet_01v8#sbody)	voltage
	50	v(m.x1.xm16.msky130_fd_pr__nfet_01v8#body)	voltage
	51	v(m.x1.xm16.msky130_fd_pr__nfet_01v8#dbody)	voltage
	52	v(m.x1.xm16.msky130_fd_pr__nfet_01v8#sbody)	voltage
	53	v(m.x1.xm17.msky130_fd_pr__pfet_01v8#body)	voltage
	54	v(m.x1.xm17.msky130_fd_pr__pfet_01v8#dbody)	voltage
	55	v(m.x1.xm17.msky130_fd_pr__pfet_01v8#sbody)	voltage
	56	v(m.x1.xm18.msky130_fd_pr__nfet_01v8#body)	voltage
	57	v(m.x1.xm18.msky130_fd_pr__nfet_01v8#dbody)	voltage
	58	v(m.x1.xm18.msky130_fd_pr__nfet_01v8#sbody)	voltage
	59	v(up)	voltage
	60	v(upb)	voltage
	61	v(vdd)	voltage
	62	i(vdd)	current
	63	i(vdiv)	current
	64	i(vref)	current
	65	v(vss)	voltage
	66	i(vss)	current
	67	v(x1.net1)	voltage
	68	v(x1.net2)	voltage
	69	v(x1.out1)	voltage
	70	v(x1.out2)	voltage
	71	v(x1.out3)	voltage
	72	v(x1.out4)	voltage
Values:
 0	0.000000000000000e+00
	4.079684334448065e-07
	1.799999974639745e+00
	0.000000000000000e+00
	0.000000000000000e+00
	1.800000000000000e+00
	1.800000000000000e+00
	1.800000000000000e+00
	2.304110534997172e-11
	5.657003772087129e-11
	1.255080607666937e-11
	5.035258387599491e-13
	1.258814596906254e-12
	2.517629193735938e-13
	1.800000000000000e+00
	1.800000000000000e+00
	1.800000000000000e+00
	2.304110534084320e-11
	5.657003771610052e-11
	1.255080605398532e-11
	5.035258298078633e-13
	1.258814574526039e-12
	2.517629148975509e-13
	1.799999999957197e+00
	1.799999999938010e+00
	1.799999999933582e+00
	2.474018527866820e-11
	1.682416083791800e-11
	5.739639286170369e-11
	1.799999999957197e+00
	1.799999999938010e+00
	1.799999999933582e+00
	2.474021166644263e-11
	1.682422680774569e-11
	5.739640605538440e-11
	1.800000000000000e+00
	1.800000000000000e+00
	1.800000000000000e+00
	2.258241434845680e-11
	5.630736384930258e-11
	1.129120717401328e-11
	1.799999999950385e+00
	1.799999999930171e+00
	1.799999999975193e+00
	5.230585703583961e-18
	1.307214187130842e-17
	2.619615239443079e-18
	1.800000000000000e+00
	1.800000000000000e+00
	1.800000000000000e+00
	2.258241857487027e-11
	5.630736596236949e-11
	1.129120928722002e-11
	1.799999999950385e+00
	1.799999999930171e+00
	1.799999999975193e+00
	5.230585704117919e-18
	1.307214187264288e-17
	2.619615239710486e-18
	4.079684334031598e-07
	1.799999974645338e+00
	1.800000000000000e+00
	-7.701254287062476e-10
	3.246251198766384e-12
	3.246152308034223e-12
	0.000000000000000e+00
	-2.633079144847359e-14
	3.983214457665705e-02
	3.983214386467143e-02
	1.799999982123744e+00
	1.799999982115484e+00
	1.771159682677485e-01
	1.771180789735366e-01

 1	6.000000000000001e-14
	4.092034130430043e-07
	1.799999983709879e+00
	0.000000000000000e+00
	1.800000000000000e-02
	1.800294722184405e+00
	1.801594304222530e+00
	1.800135021042165e+00
	5.085342677845467e-03
	4.187188232444905e-03
	3.786915623664787e-03
	3.042663408909191e-04
	8.170219187080040e-04
	1.353004608093307e-04
	1.800000458849139e+00
	1.800002649357652e+00
	1.800000196997516e+00
	1.525815960977395e-04
	6.325978808985333e-05
	4.781462561756836e-04
	1.127961812171490e-03
	6.455599510051223e-04
	5.039694063556647e-04
	1.802318419103281e+00
	1.801271065461802e+00
	1.802702721957640e+00
	2.646315085138533e-03
	1.507891048692714e-03
	2.365256248335943e-03
	1.800000003184864e+00
	1.800000008718931e+00
	1.800000001399583e+00
	8.411927085727466e-07
	3.594008112089986e-07
	2.387895783384497e-06
	1.800019921932408e+00
	1.800059690949446e+00
	1.800009547356631e+00
	1.367855847599977e-04
	8.302298727246027e-05
	6.114711062853184e-05
	1.800046615840632e+00
	1.800025222329579e+00
	1.800018770217336e+00
	7.473058400585885e-06
	9.295807313502502e-06
	3.307219767496513e-06
	1.800000002196843e+00
	1.800000002553960e+00
	1.800000000946077e+00
	4.556457135207470e-09
	2.787642339185936e-09
	2.038080830321154e-09
	1.800000001445132e+00
	1.800000000738946e+00
	1.800000000577064e+00
	2.396480740057991e-10
	2.981009902792542e-10
	1.060566458553731e-10
	3.891904891193450e-05
	1.800282822437064e+00
	1.800000000000000e+00
	3.316634008788052e-04
	2.336449228609771e-05
	-8.944004970671151e-04
	0.000000000000000e+00
	-1.237520376601161e-14
	4.613692034878564e-02
	4.112915933387264e-02
	1.810035813638591e+00
	1.800016878694986e+00
	1.794559645330066e-01
	1.771181566571065e-01

 2	1.200000000000000e-13
	4.088852855176784e-07
	1.799999981987857e+00
	0.000000000000000e+00
	3.600000000000000e-02
	1.800387037764961e+00
	1.801655707974376e+00
	1.800185022896418e+00
	6.530807755640078e-03
	5.344558594054694e-03
	4.975074118909305e-03
	2.897452709926980e-04
	7.228502674482820e-04
	1.437629625828967e-04
	1.800000426819780e+00
	1.800001659656910e+00
	1.800000210609988e+00
	2.060298687820428e-04
	9.591309149725724e-05
	5.503048062800667e-04
	1.224125303282217e-03
	7.220349548675443e-04
	5.999281882421015e-04
	1.802665251235449e+00
	1.801513795002095e+00
	1.803115144286573e+00
	3.049120631676521e-03
	1.875375455891701e-03
	2.648297623927291e-03
	1.800000000174361e+00
	1.799999999790743e+00
	1.800000000166293e+00
	6.065619598538685e-07
	3.111054625998255e-07
	1.446260690179946e-06
	1.800021993231874e+00
	1.800060383096519e+00
	1.800010537286452e+00
	1.284021516576653e-04
	8.094655285026398e-05
	6.379230780659938e-05
	1.800048109752294e+00
	1.800027781739711e+00
	1.800023003204724e+00
	6.859450049158240e-06
	8.805272058529348e-06
	3.383412891579259e-06
	1.800000000099334e+00
	1.800000000147742e+00
	1.800000000159523e+00
	-2.314813479786793e-10
	2.693956169252942e-13
	1.095824692532734e-10
	1.799999999996228e+00
	1.800000000011144e+00
	1.800000000110096e+00
	-1.997204136789852e-11
	-1.609609240192005e-11
	2.312835228711883e-12
	6.755747071611264e-05
	1.800512331727639e+00
	1.800000000000000e+00
	3.530831657380246e-04
	1.608891973025448e-05
	-1.004849450849676e-03
	0.000000000000000e+00
	-1.359669295727711e-14
	5.080013111170521e-02
	4.210854202739893e-02
	1.818596113990331e+00
	1.800024316359006e+00
	1.814369603023422e-01
	1.771181451068374e-01

 3	2.400000000000000e-13
	4.077235352211755e-07
	1.799999973690433e+00
	0.000000000000000e+00
	7.200000000000001e-02
	1.800423814613442e+00
	1.801602663392932e+00
	1.800215314741711e+00
	7.304668320266744e-03
	5.994456653051095e-03
	5.704181827489250e-03
	2.331347643560995e-04
	5.729607363926465e-04
	1.205573185587125e-04
	1.799999988103880e+00
	1.799999483375025e+00
	1.800000027468519e+00
	2.383565488933426e-04
	1.203146070279382e-04
	5.808121735851705e-04
	1.219362524813800e-03
	7.274208251392376e-04
	6.193375903406125e-04
	1.802790101552980e+00
	1.801600141705340e+00
	1.803264222438508e+00
	3.121147614165324e-03
	2.004879110408902e-03
	2.660160921366244e-03
	1.799999996855263e+00
	1.799999992112175e+00
	1.799999998433601e+00
	-1.264302626202696e-07
	-1.536760882436816e-08
	-4.964280188868297e-07
	1.800021967692295e+00
	1.800056859594669e+00
	1.800011183609805e+00
	1.171652887915070e-04
	7.393740130223758e-05
	5.949668234210181e-05
	1.800045726195700e+00
	1.800026875419600e+00
	1.800023728881777e+00
	5.980125327813340e-06
	7.676296474912422e-06
	3.081652565859144e-06
	1.799999997983603e+00
	1.799999997618480e+00
	1.799999999083254e+00
	-3.856122324230604e-09
	-2.384995145821023e-09
	-1.908158434509252e-09
	1.799999998579644e+00
	1.799999999144516e+00
	1.799999999360534e+00
	-2.082170785311019e-10
	-2.688976224574319e-10
	-1.005237219757508e-10
	1.207292429491796e-04
	1.800948603186651e+00
	1.800000000000000e+00
	3.598010347922731e-04
	1.273587555993821e-05
	-1.049791962205429e-03
	0.000000000000000e+00
	-1.525771656454416e-14
	5.919961798685274e-02
	4.398430194546544e-02
	1.835020186460804e+00
	1.800027554957777e+00
	1.852254110513719e-01
	1.771180746615291e-01

 4	4.800000000000001e-13
	4.076830491814932e-07
	1.799999972144452e+00
	0.000000000000000e+00
	1.440000000000000e-01
	1.800423544641171e+00
	1.801606113612186e+00
	1.800209093009468e+00
	6.719656508147945e-03
	5.518505754991687e-03
	5.278622063905766e-03
	2.424725383561649e-04
	6.159101319483393e-04
	1.174535987045828e-04
	1.799999829935554e+00
	1.799999690320291e+00
	1.799999893187635e+00
	2.251419839610774e-04
	1.114965992490002e-04
	5.701294978358081e-04
	1.164448098283156e-03
	6.931501668289626e-04
	5.753566314305689e-04
	1.802740097187123e+00
	1.801556892269317e+00
	1.803207047202187e+00
	2.936454781107364e-03
	1.849368582242907e-03
	2.521238031181999e-03
	1.800000001883221e+00
	1.800000005425464e+00
	1.800000000729828e+00
	-1.609925296061632e-07
	-1.191017640934933e-07
	-2.359933454071372e-07
	1.800021282736532e+00
	1.800057357286369e+00
	1.800010558411177e+00
	1.224088021450354e-04
	7.667843797434792e-05
	6.025547927858429e-05
	1.800045661495594e+00
	1.800026067557371e+00
	1.800022159777478e+00
	5.979695039478128e-06
	7.628403350755623e-06
	2.921689908059370e-06
	1.800000001233157e+00
	1.800000001438135e+00
	1.800000000417223e+00
	2.890052069187687e-09
	1.788269407554388e-09
	1.237533196205767e-09
	1.800000000821330e+00
	1.800000000375193e+00
	1.800000000234331e+00
	1.606788027816636e-10
	2.008202363877763e-10
	6.534447957180380e-11
	2.211901262752813e-04
	1.801802477347364e+00
	1.800000000000000e+00
	3.631560876254172e-04
	1.479254729735050e-05
	-1.016231684784552e-03
	0.000000000000000e+00
	-1.214918667882658e-14
	7.508181957707820e-02
	4.771222422203306e-02
	1.866797127738304e+00
	1.800019167439910e+00
	1.926858945147845e-01
	1.771180546326704e-01

 5	9.600000000000002e-13
	4.079987402956242e-07
	1.799999975233207e+00
	0.000000000000000e+00
	2.880000000000000e-01
	1.800550747803566e+00
	1.801654981314901e+00
	1.800275304315790e+00
	6.643410186609307e-03
	5.446863940433047e-03
	5.346854708110188e-03
	2.455140741571579e-04
	6.041786412082318e-04
	1.262587200499314e-04
	1.800000058948213e+00
	1.799999888064317e+00
	1.800000044678330e+00
	2.431280778284958e-04
	1.213556551870054e-04
	6.005715933842942e-04
	1.088044749381689e-03
	6.663938792502342e-04
	5.516523163754967e-04
	1.802876037934829e+00
	1.801641845839793e+00
	1.803375681254797e+00
	2.854618612671483e-03
	1.854751689919335e-03
	2.445627975048778e-03
	1.799999998662383e+00
	1.799999995838669e+00
	1.799999999484241e+00
	7.846892739749034e-09
	3.576590265792767e-08
	-1.289018683875431e-07
	1.800021764856670e+00
	1.800056097950081e+00
	1.800010935165268e+00
	1.172996006192726e-04
	7.387656179932978e-05
	5.961393360356872e-05
	1.800044650658139e+00
	1.800025719132635e+00
	1.800022946700690e+00
	5.076064195235814e-06
	6.523673534632955e-06
	2.621024792313861e-06
	1.799999999171100e+00
	1.799999999048164e+00
	1.799999999802773e+00
	-2.205776412217419e-09
	-1.246705294555284e-09
	-8.346227361399310e-10
	1.799999999346984e+00
	1.799999999655805e+00
	1.799999999871381e+00
	-1.262798219359403e-10
	-1.538640820739446e-10
	-4.477945192737966e-11
	4.061288302669542e-04
	1.803495559418993e+00
	1.800000000000000e+00
	3.792549879863757e-04
	1.378989540170164e-05
	-1.024570556025728e-03
	0.000000000000000e+00
	-3.641571682194995e-15
	1.080162225435808e-01
	5.538739700064883e-02
	1.928638050933510e+00
	1.800010791684332e+00
	2.076989737116171e-01
	1.771180860155342e-01

 6	1.920000000000000e-12
	4.077559860789292e-07
	1.799999972677079e+00
	0.000000000000000e+00
	5.760000000000001e-01
	1.800987112747037e+00
	1.801874097929178e+00
	1.800488968386532e+00
	5.828701121862026e-03
	4.824780422290217e-03
	5.009431807968858e-03
	2.610582250197215e-04
	6.624815685043737e-04
	1.270185940894543e-04
	1.799999771061174e+00
	1.799999726028931e+00
	1.799999873994548e+00
	3.017058574118110e-04
	1.495679681624840e-04
	7.633753163682807e-04
	8.291144659572821e-04
	5.661929914438806e-04
	4.093014407102876e-04
	1.802957317801092e+00
	1.801677181470576e+00
	1.803487359615328e+00
	2.497285264035121e-03
	1.643302805911103e-03
	2.176830170714112e-03
	1.800000000998408e+00
	1.800000003470661e+00
	1.800000000246580e+00
	-1.250146743087682e-07
	-9.156081134682054e-08
	-1.712334721862274e-07
	1.800021772144377e+00
	1.800057061109006e+00
	1.800010857159027e+00
	1.237131171611949e-04
	7.704241482152374e-05
	6.087732527908694e-05
	1.800044734012207e+00
	1.800024670310397e+00
	1.800021781867402e+00
	4.409931172962442e-06
	5.596907519652580e-06
	2.137601906836058e-06
	1.800000000673433e+00
	1.800000000764001e+00
	1.800000000117751e+00
	1.988493389046275e-09
	1.183625083361894e-09
	7.037444006030255e-10
	1.800000000449733e+00
	1.800000000139593e+00
	1.800000000022659e+00
	1.128102351418218e-10
	1.353961702668173e-10
	3.693512272571368e-11
	7.234353330977068e-04
	1.806859697445713e+00
	1.800000000000000e+00
	3.937212779129770e-04
	1.835964484890155e-05
	-1.003900658970986e-03
	0.000000000000000e+00
	-1.516068449141335e-14
	1.783534321176929e-01
	7.350485689664019e-02
	2.046492629586591e+00
	1.799996541835109e+00
	2.383485144047508e-01
	1.771180600406787e-01

 7	3.840000000000001e-12
	4.081051185803167e-07
	1.799999975724287e+00
	0.000000000000000e+00
	1.152000000000000e+00
	1.803177474946081e+00
	1.803172592178618e+00
	1.801581167936619e+00
	5.597123301352685e-03
	4.764505249843433e-03
	6.089811027766588e-03
	4.093785890895493e-04
	1.015577492955842e-03
	2.075699486103856e-04
	1.799999933300076e+00
	1.799999940331951e+00
	1.799999977060345e+00
	4.894128161804581e-04
	2.440278610897594e-04
	1.219681559351765e-03
	2.097113792953448e-04
	3.512615445560047e-04
	1.128570183934602e-04
	1.803471504799099e+00
	1.802121968189351e+00
	1.804100236520498e+00
	2.060040135293914e-03
	1.778837231672650e-03
	1.980316388257053e-03
	1.799999999048147e+00
	1.799999996707857e+00
	1.799999999690133e+00
	4.909595232530789e-08
	5.204586230348959e-08
	-1.412247331578076e-08
	1.800041798382377e+00
	1.800103268254578e+00
	1.800020867261734e+00
	2.105571400201909e-04
	1.326553476636138e-04
	1.059225949345428e-04
	1.800080201132894e+00
	1.800044501361266e+00
	1.800040402325886e+00
	7.044524844447324e-06
	9.005570938310829e-06
	3.583037095737819e-06
	1.799999999408841e+00
	1.799999999335118e+00
	1.799999999922845e+00
	-1.801147457743124e-09
	-9.766664543081616e-10
	-6.007352247797340e-10
	1.799999999506577e+00
	1.799999999755042e+00
	1.799999999956361e+00
	-1.048498388746094e-10
	-1.246401292995601e-10
	-3.252149694035272e-11
	1.492455900877313e-03
	1.816331758041072e+00
	1.800000000000000e+00
	4.323533697007734e-04
	2.824685150752009e-05
	-1.159238302204933e-03
	0.000000000000000e+00
	-1.977990686422592e-14
	3.770375846398251e-01
	1.272734634766447e-01
	2.280697927403142e+00
	1.799979350915750e+00
	3.267569815899932e-01
	1.771180894271138e-01

 8	6.000000000000000e-12
	4.075764157207932e-07
	1.799999970775716e+00
	0.000000000000000e+00
	1.800000000000000e+00
	1.801463974909162e+00
	1.801105612906825e+00
	1.800747674704997e+00
	5.508823565776403e-03
	3.051190587184324e-03
	7.271282989359308e-03
	5.691167480173869e-04
	1.432577690816457e-03
	2.811684522121823e-04
	1.799999061728256e+00
	1.799998927258104e+00
	1.799999524738584e+00
	4.933940671766023e-05
	2.767654805676395e-05
	1.100797306882633e-04
	2.035822919942457e-04
	1.124526714710522e-04
	9.405661904931227e-05
	1.804321607418925e+00
	1.802970926959256e+00
	1.805130722133534e+00
	2.069545890184873e-03
	2.419567127377251e-03
	1.175225846996705e-03
	1.800000000700013e+00
	1.800000002774016e+00
	1.800000000091698e+00
	-2.978011912554979e-07
	-1.742185025098431e-07
	-6.149692596182227e-07
	1.800104843611786e+00
	1.800231116259823e+00
	1.800052235620167e+00
	3.825820285318993e-04
	2.495646566073482e-04
	1.901145232525553e-04
	1.800173154241947e+00
	1.800095163436453e+00
	1.800085663947563e+00
	1.521687392966188e-05
	1.935039408107790e-05
	7.530547553717322e-06
	1.800000000487631e+00
	1.800000000541233e+00
	1.800000000026798e+00
	1.657324502028074e-09
	9.673214000638364e-10
	5.217515556349800e-10
	1.800000000324666e+00
	1.800000000063913e+00
	1.799999999959349e+00
	9.563354156565403e-11
	1.123834149117183e-10
	2.760694472085815e-11
	3.175457684774957e-03
	1.837818812468607e+00
	1.800000000000000e+00
	4.911351018631951e-04
	2.273379835737308e-05
	-1.245848893105597e-03
	0.000000000000000e+00
	-1.711536054778103e-14
	7.400209497299011e-01
	1.672808230417692e-01
	2.437555359950867e+00
	1.799911944659923e+00
	5.242603839707722e-01
	1.771180419157344e-01

 9	6.384000000000000e-12
	4.073718106049763e-07
	1.799999968985715e+00
	0.000000000000000e+00
	1.800000000000000e+00
	1.798447252784087e+00
	1.797626452401978e+00
	1.799262766024492e+00
	1.973229353609482e-04
	-1.648998987223191e-03
	1.520876025772472e-03
	1.522550437647336e-04
	3.680464885332038e-04
	8.004671130871707e-05
	1.799998019368116e+00
	1.799997768620779e+00
	1.799999023142024e+00
	-4.086676279368637e-04
	-1.965720684262845e-04
	-1.069425754912293e-03
	-2.712683888173337e-04
	-3.636971563312041e-04
	-1.323085974357501e-04
	1.800341924167136e+00
	1.800556661993129e+00
	1.800301090736689e+00
	-7.898851732534434e-07
	6.234019730647147e-04
	-8.991722792887094e-04
	1.799999999866878e+00
	1.799999999685931e+00
	1.799999999891526e+00
	-4.948771019086529e-07
	-2.455568508486980e-07
	-1.247311154008168e-06
	1.800047018644790e+00
	1.800093676752255e+00
	1.800023989876802e+00
	1.506922091395295e-04
	9.840618539198182e-05
	7.741616564430458e-05
	1.800067256175605e+00
	1.800034554097204e+00
	1.800035531218311e+00
	-4.007806277249329e-08
	-5.219419298395096e-08
	1.417928594769664e-07
	1.799999999931947e+00
	1.799999999923042e+00
	1.799999999964224e+00
	-1.099784586316988e-10
	-1.946779196182469e-11
	-4.497220651329291e-11
	1.799999999906612e+00
	1.799999999907161e+00
	1.799999999953351e+00
	-4.523709801753846e-12
	-5.139418039370341e-12
	-1.868162148053167e-12
	3.156327522166719e-03
	1.839722281509740e+00
	1.800000000000000e+00
	1.516816072404115e-05
	-1.122070878687672e-05
	-7.250892899346659e-05
	0.000000000000000e+00
	-1.052079103182958e-14
	7.593867293933499e-01
	1.540694925298927e-01
	2.388943990504056e+00
	1.799864256613145e+00
	5.438649106105952e-01
	1.771180260638673e-01

 10	7.152000000000000e-12
	4.089767833114790e-07
	1.799999981583451e+00
	0.000000000000000e+00
	1.800000000000000e+00
	1.798691338715255e+00
	1.797947679238543e+00
	1.799305178234126e+00
	-4.389324286907595e-04
	-1.937091908084318e-03
	5.271577557850321e-04
	1.153343135132838e-04
	2.997168882919454e-04
	5.425499325540735e-05
	1.800002408025249e+00
	1.800002704061708e+00
	1.800001133493663e+00
	-4.346467108055294e-04
	-2.232596741045256e-04
	-1.041344266200303e-03
	-2.322106881650055e-04
	-3.074740622457557e-04
	-1.198074734277050e-04
	1.800000415979847e+00
	1.800279272353602e+00
	1.799881404127045e+00
	-9.572240786244295e-05
	4.155093805760755e-04
	-8.369327700342788e-04
	1.800000000923291e+00
	1.800000002407570e+00
	1.800000000405418e+00
	5.919385137782840e-07
	2.800273544104753e-07
	1.549181518706311e-06
	1.800040351427839e+00
	1.800077057916672e+00
	1.800019806009102e+00
	1.207408801378613e-04
	7.860784159683526e-05
	5.867094319523670e-05
	1.800052675447955e+00
	1.800024678540359e+00
	1.800024843754010e+00
	-1.265027244082962e-06
	-1.785960251289356e-06
	-7.706705937524239e-07
	1.800000000662128e+00
	1.800000000773774e+00
	1.800000000323051e+00
	1.262001241356114e-09
	8.188546229970228e-10
	6.087928406952910e-10
	1.800000000392009e+00
	1.800000000181873e+00
	1.800000000187089e+00
	6.174796443260668e-11
	7.805552684559117e-11
	2.983375788886403e-11
	3.113671714107299e-03
	1.843375661569280e+00
	1.800000000000000e+00
	-1.515716538649098e-05
	-5.647645180690017e-06
	8.374439883430216e-06
	0.000000000000000e+00
	-8.705604577314946e-15
	7.970724540947502e-01
	1.308441674015439e-01
	2.302404564697624e+00
	1.799879019077448e+00
	5.812905166492131e-01
	1.771181380757808e-01

 11	8.688000000000000e-12
	4.076024735062174e-07
	1.799999972107073e+00
	0.000000000000000e+00
	1.800000000000000e+00
	1.799429414858573e+00
	1.798863535486227e+00
	1.799749175638167e+00
	1.315738883740300e-05
	-1.068758726076376e-03
	6.939819147437493e-04
	6.713771690347852e-05
	1.558423108624762e-04
	3.714598649676921e-05
	1.799998978593515e+00
	1.799998863326827e+00
	1.799999580907088e+00
	-2.593857742951983e-04
	-1.245738938416008e-04
	-6.828213576249441e-04
	-1.788656435181861e-04
	-2.366004794133312e-04
	-8.617105600085463e-05
	1.800261510326115e+00
	1.800390818840886e+00
	1.800244653474606e+00
	1.192889043215555e-05
	4.029976978304449e-04
	-5.531318255671966e-04
	1.799999998703121e+00
	1.799999996711097e+00
	1.799999999326266e+00
	-2.414672172941501e-07
	-9.970829416977578e-08
	-6.953614085057624e-07
	1.800033694562446e+00
	1.800057151872165e+00
	1.800017215366704e+00
	8.530719273114155e-05
	5.589320479072214e-05
	4.448056370976941e-05
	1.800037792986000e+00
	1.800017751985769e+00
	1.800020472194999e+00
	-3.267139165888260e-06
	-4.174046571524602e-06
	-1.492111300652182e-06
	1.799999999140312e+00
	1.799999998995113e+00
	1.799999999588169e+00
	-1.602073362860779e-09
	-9.427568777725659e-10
	-7.659970998060801e-10
	1.799999999374240e+00
	1.799999999602309e+00
	1.799999999705178e+00
	-8.458490717781638e-11
	-1.069118655879347e-10
	-4.050276349607289e-11
	2.856225156813609e-03
	1.848957907793960e+00
	1.800000000000000e+00
	1.649079898254774e-05
	-8.619495562850037e-06
	-4.177441171691911e-05
	0.000000000000000e+00
	-1.778800119968626e-14
	8.491114244246685e-01
	9.391305660851623e-02
	2.166572480549337e+00
	1.799940573159679e+00
	6.418823749495044e-01
	1.771180569752563e-01

 12	1.176000000000000e-11
	4.085094592561026e-07
	1.799999979054972e+00
	0.000000000000000e+00
	1.800000000000000e+00
	1.799669121427958e+00
	1.799285465559167e+00
	1.799799720902215e+00
	-4.411659098794794e-04
	-1.057554406217361e-03
	-1.290221832728825e-04
	3.019278670212799e-05
	8.719164867308955e-05
	1.164456180679506e-05
	1.800001665047217e+00
	1.800001860823493e+00
	1.800000733150810e+00
	-1.899611849184631e-04
	-9.967610796561208e-05
	-4.365807530115616e-04
	-9.215009962658600e-05
	-1.196345282153091e-04
	-4.959335143724149e-05
	1.799927886900794e+00
	1.800079493113611e+00
	1.799852688483889e+00
	-8.121244625832174e-05
	1.363591651998199e-04
	-4.083257467371999e-04
	1.800000001308557e+00
	1.800000003430937e+00
	1.800000000584578e+00
	4.007566873649032e-07
	1.775199287368592e-07
	1.102103863490078e-06
	1.800017980439315e+00
	1.800021742699110e+00
	1.800008674590453e+00
	4.204976637842963e-05
	2.487547064228528e-05
	1.932373038519807e-05
	1.800010144929639e+00
	1.800001722814271e+00
	1.800003657216961e+00
	-4.153307911100668e-06
	-5.457083987377019e-06
	-2.217668336656775e-06
	1.800000000923403e+00
	1.800000001079103e+00
	1.800000000437943e+00
	1.784616354000290e-09
	1.137973559134364e-09
	8.497331332899514e-10
	1.800000000570088e+00
	1.800000000281097e+00
	1.800000000261709e+00
	9.141612963291173e-11
	1.154088523058079e-10
	4.346865995372328e-11
	2.036827995520393e-03
	1.855019638459138e+00
	1.800000000000000e+00
	-1.042018174027964e-05
	-1.245235394875863e-06
	2.824293108001323e-05
	0.000000000000000e+00
	-6.180876522735282e-15
	9.055693889549624e-01
	4.686726795263592e-02
	1.984092261897675e+00
	1.800003944434050e+00
	7.244432301802194e-01
	1.771181171885975e-01

 13	1.790400000000000e-11
	4.074351298036330e-07
	1.799999971298529e+00
	0.000000000000000e+00
	1.800000000000000e+00
	1.799979194218590e+00
	1.799875018794592e+00
	1.800023693938537e+00
	1.482707482547479e-04
	-1.172520720550806e-04
	3.157713375027144e-04
	1.243937884815938e-05
	1.934968964162863e-05
	9.675854329695453e-06
	1.799998450905176e+00
	1.799998449053748e+00
	1.799999329601285e+00
	2.376456769039373e-06
	5.700107301918195e-06
	-2.806070749223824e-05
	-2.020196152271632e-05
	-2.737194775222463e-05
	-6.721416275578056e-06
	1.800171851602742e+00
	1.800173836500607e+00
	1.800196021514838e+00
	3.644962685038413e-05
	1.381356549156913e-04
	-1.098279549277998e-04
	1.799999998552941e+00
	1.799999996300808e+00
	1.799999999258751e+00
	-3.000978295777251e-07
	-1.261690300975683e-07
	-8.551072817070821e-07
	1.799999499202320e+00
	1.799984911157031e+00
	1.800000088778427e+00
	1.595202071829282e-05
	3.426909511787882e-06
	9.705531126152991e-06
	1.799985608706648e+00
	1.799991586257108e+00
	1.799994263917215e+00
	-3.396810019039790e-06
	-4.273738580016627e-06
	-1.564408479839175e-06
	1.799999999040331e+00
	1.799999998878615e+00
	1.799999999546923e+00
	-1.814059252640277e-09
	-1.070587028750847e-09
	-8.604682615353876e-10
	1.799999999305831e+00
	1.799999999565812e+00
	1.799999999679013e+00
	-9.555706107807376e-11
	-1.205808306307506e-10
	-4.530243157850210e-11
	3.933603050133645e-04
	1.854505560109138e+00
	1.800000000000000e+00
	1.723606688289192e-05
	-2.539657764147633e-06
	-3.285914540572804e-05
	0.000000000000000e+00
	-9.366910709741466e-15
	9.557821321431634e-01
	9.069065789630095e-03
	1.794885718743803e+00
	1.800075936621032e+00
	8.124761268508460e-01
	1.771180520693404e-01

 14	3.019200000000001e-11
	4.084165432900067e-07
	1.799999977507429e+00
	0.000000000000000e+00
	1.800000000000000e+00
	1.799895379290613e+00
	1.799812559542430e+00
	1.799913773358819e+00
	-2.779384616431349e-04
	-3.824076240602058e-04
	-2.480996643816442e-04
	4.122045612169869e-06
	2.203389573182191e-05
	-1.381430306656858e-06
	1.800001522182200e+00
	1.800001461695409e+00
	1.800000654689992e+00
	-2.850681468288775e-05
	-1.881405434700761e-05
	-3.701324497304962e-05
	5.985745694560337e-06
	7.376467840743462e-06
	-3.994205307971040e-07
	1.799870170079755e+00
	1.799930347913121e+00
	1.799825614051815e+00
	-6.283246030884646e-05
	-3.540589911012757e-05
	-1.138232218936335e-04
	1.800000001380564e+00
	1.800000003629260e+00
	1.800000000616629e+00
	2.699815644373760e-07
	1.107259534129405e-07
	7.816786141662084e-07
	1.799982031183306e+00
	1.799952412538512e+00
	1.799990693169117e+00
	-2.242206117941247e-06
	-1.393109350103679e-05
	-2.828913410207213e-06
	1.799962604589363e+00
	1.799979942705154e+00
	1.799979877060567e+00
	1.724542590414681e-06
	6.651891466785532e-08
	7.221388378043172e-07
	1.800000000972788e+00
	1.800000001136631e+00
	1.800000000458106e+00
	1.887616551455619e-09
	1.200222396512476e-09
	8.952012033511214e-10
	1.800000000604097e+00
	1.800000000299459e+00
	1.800000000274540e+00
	9.739596887219758e-11
	1.228702535620947e-10
	4.610002645826298e-11
	-1.462350232703845e-03
	1.829786897317150e+00
	1.800000000000000e+00
	-1.633940109956045e-05
	2.418040395605874e-06
	3.073823962398643e-05
	0.000000000000000e+00
	-1.206303754125845e-14
	9.953066053847608e-01
	-1.494273785531259e-03
	1.638821072152939e+00
	1.800033599040398e+00
	8.827012769585905e-01
	1.771181032279500e-01

 15	5.476800000000001e-11
	4.075398868108831e-07
	1.799999971671864e+00
	0.000000000000000e+00
	1.800000000000000e+00
	1.800059645185781e+00
	1.800075109920091e+00
	1.800063615305932e+00
	2.255328193542965e-04
	1.843303884871933e-04
	2.742172672254399e-04
	2.624448692593775e-06
	-5.162885570097792e-06
	4.750823690523460e-06
	1.799998474673661e+00
	1.799998512348290e+00
	1.799999344845592e+00
	3.106029559557673e-05
	1.999318277844412e-05
	4.361810925078619e-05
	-5.164012023468164e-06
	-5.593431861940671e-06
	8.101177555712997e-07
	1.800143055273100e+00
	1.800103556110260e+00
	1.800180699052401e+00
	4.630991132495552e-05
	6.408541862004658e-05
	2.288577835565825e-05
	1.799999998524788e+00
	1.799999996220980e+00
	1.799999999246688e+00
	-2.796575247017343e-07
	-1.153676164231099e-07
	-8.067793272707995e-07
	1.799944507002708e+00
	1.799928469622713e+00
	1.799972593301532e+00
	-4.212930775206278e-06
	-1.701469082709289e-05
	-3.981078892669267e-07
	1.799959103167943e+00
	1.799980354415532e+00
	1.799980975408909e+00
	-2.046684044365443e-06
	-9.488716598518400e-07