Title: **.subckt opamp_openloop
Date: Thu Apr  1 12:25:09  2021
Plotname: AC Analysis
Flags: complex
No. Variables: 49
No. Points: 1001
Variables:
	0	frequency	frequency grid=3
	1	dcg	notype dims=1
	2	gbw	notype dims=1
	3	v(m.x1.xm1.msky130_fd_pr__pfet_01v8#body)	voltage
	4	v(m.x1.xm1.msky130_fd_pr__pfet_01v8#dbody)	voltage
	5	v(m.x1.xm1.msky130_fd_pr__pfet_01v8#sbody)	voltage
	6	v(m.x1.xm2.msky130_fd_pr__pfet_01v8#body)	voltage
	7	v(m.x1.xm2.msky130_fd_pr__pfet_01v8#dbody)	voltage
	8	v(m.x1.xm2.msky130_fd_pr__pfet_01v8#sbody)	voltage
	9	v(m.x1.xm3.msky130_fd_pr__nfet_01v8#body)	voltage
	10	v(m.x1.xm3.msky130_fd_pr__nfet_01v8#dbody)	voltage
	11	v(m.x1.xm3.msky130_fd_pr__nfet_01v8#sbody)	voltage
	12	v(m.x1.xm4.msky130_fd_pr__nfet_01v8#body)	voltage
	13	v(m.x1.xm4.msky130_fd_pr__nfet_01v8#dbody)	voltage
	14	v(m.x1.xm4.msky130_fd_pr__nfet_01v8#sbody)	voltage
	15	v(m.x1.xm5.msky130_fd_pr__pfet_01v8#body)	voltage
	16	v(m.x1.xm5.msky130_fd_pr__pfet_01v8#dbody)	voltage
	17	v(m.x1.xm5.msky130_fd_pr__pfet_01v8#sbody)	voltage
	18	v(m.x1.xm6.msky130_fd_pr__nfet_01v8#body)	voltage
	19	v(m.x1.xm6.msky130_fd_pr__nfet_01v8#dbody)	voltage
	20	v(m.x1.xm6.msky130_fd_pr__nfet_01v8#sbody)	voltage
	21	v(m.x1.xm7.msky130_fd_pr__pfet_01v8#body)	voltage
	22	v(m.x1.xm7.msky130_fd_pr__pfet_01v8#dbody)	voltage
	23	v(m.x1.xm7.msky130_fd_pr__pfet_01v8#sbody)	voltage
	24	v(m.x1.xm8.msky130_fd_pr__pfet_01v8#body)	voltage
	25	v(m.x1.xm8.msky130_fd_pr__pfet_01v8#dbody)	voltage
	26	v(m.x1.xm8.msky130_fd_pr__pfet_01v8#sbody)	voltage
	27	v(m.x1.xm9.msky130_fd_pr__nfet_01v8#body)	voltage
	28	v(m.x1.xm9.msky130_fd_pr__nfet_01v8#dbody)	voltage
	29	v(m.x1.xm9.msky130_fd_pr__nfet_01v8#sbody)	voltage
	30	v(net1)	voltage
	31	pm	notype dims=1
	32	i(v1)	current
	33	i(v2)	current
	34	i(v3)	current
	35	i(v4)	current
	36	v(vcm)	voltage
	37	v(vdd)	voltage
	38	v(ve)	voltage
	39	v(vin)	voltage
	40	v(vout)	voltage
	41	v(vsen)	voltage
	42	v(vss)	voltage
	43	v(x1.net1)	voltage
	44	v(x1.vbn)	voltage
	45	v(x1.voe1)	voltage
	46	v(x1.vp)	voltage
	47	v(x1.xc1.a)	voltage
	48	v(x1.xc1.b1)	voltage
Values:
 0	1.000000000000000e+00,0.000000000000000e+00
	5.976818000000000e+01,0.0
	5.434492000000000e+07,0.0
	7.233737092636470e-01,-4.219408488541355e-06
	7.233737092466394e-01,-4.219408649313173e-06
	7.233737092697765e-01,-4.219408473010589e-06
	7.233737096540208e-01,-4.219405911675035e-06
	7.233737101728330e-01,-4.219401780957959e-06
	7.233737094649635e-01,-4.219407184577509e-06
	-2.526533114596155e-12,-5.930646718053736e-14
	-6.316117929794763e-12,-7.757886063137227e-14
	-1.263440548598627e-12,-2.965357346931635e-14
	3.629838678007772e-10,3.365327520871676e-12
	9.074459535138957e-10,8.508737607901748e-12
	1.814920808545290e-10,1.682664036430067e-12
	9.117812428052548e-12,9.553874302916348e-14
	2.279451214568578e-11,2.231351193844417e-13
	4.558924991520499e-12,4.776941596629004e-14
	-2.085374045731756e-08,-1.515440798544021e-10
	-3.476847153375448e-08,-3.996732208645490e-10
	-1.042683579384194e-08,-7.577196887939599e-11
	-2.421212138404800e-08,-9.032497540635728e-11
	-3.644765288898591e-08,-2.268850990691420e-10
	-1.210607333986243e-08,-4.516251757175764e-11
	4.501636127324046e-20,-3.634039139895406e-18
	5.497170685065252e-20,-6.127686374541751e-18
	2.250851299954241e-20,-1.817160286512775e-18
	7.259538627162905e-10,2.708826491329160e-12
	1.088930774484711e-09,3.123971257833894e-12
	1.088930781203740e-09,3.124225311423090e-12
	-3.070777189932891e-12,-1.724278699447917e-07
	1.200400000000000e+00,0.0
	6.792858633964039e-11,-2.242898135585645e-16
	-1.702553295940253e-01,3.027795884448651e-06
	-1.770297659502491e-01,3.151239279104858e-06
	-8.951483819662290e-08,-3.144418059264353e-11
	0.000000000000000e+00,0.000000000000000e+00
	0.000000000000000e+00,0.000000000000000e+00
	-8.851483821770550e+01,1.575629881173302e-03
	9.999999999949954e-01,1.424672897906374e-08
	-9.736636679689516e+02,1.733193657098449e-02
	1.000000000000000e+00,0.000000000000000e+00
	0.000000000000000e+00,0.000000000000000e+00
	2.903815061760201e+01,-5.182407364102102e-04
	-2.021150750436594e-01,-3.297333592643507e-06
	2.903815091133633e+01,-5.080766453309119e-04
	7.233737092759062e-01,-4.219408457479911e-06
	-9.736636679689516e+02,1.733193673927546e-02
	-9.736636679689517e+02,1.733193658581186e-02

 1	1.023292992280754e+00,0.000000000000000e+00
	0.000000000000000e+00,0.000000000000000e+00
	0.000000000000000e+00,0.000000000000000e+00
	7.233737092627105e-01,-4.318165775231478e-06
	7.233737092457029e-01,-4.318165939748140e-06
	7.233737092688401e-01,-4.318165759338958e-06
	7.233737096530845e-01,-4.318163138342487e-06
	7.233737101718967e-01,-4.318158911408990e-06
	7.233737094640271e-01,-4.318164440894546e-06
	-2.526533069078276e-12,-6.068789060522015e-14
	-6.316117870301363e-12,-7.938590028920886e-14
	-1.263440525839430e-12,-3.034429309834363e-14
	3.629838706344785e-10,3.443715830616847e-12
	9.074459605639886e-10,8.706930971778703e-12
	1.814920822713804e-10,1.721858197731288e-12
	9.117812455683946e-12,9.776412025030662e-14
	2.279451220783276e-11,2.283325890410390e-13
	4.558925005336224e-12,4.888210561226258e-14
	-2.085374058469875e-08,-1.550739812512779e-10
	-3.476847186939237e-08,-4.089827832937621e-10
	-1.042683585753247e-08,-7.753691792294050e-11
	-2.421212145988461e-08,-9.242889847324225e-11
	-3.644765307947914e-08,-2.321699080120137e-10
	-1.210607337778076e-08,-4.621447980092040e-11
	4.713791457788747e-20,-3.718686824223126e-18
	5.756243946324913e-20,-6.270418573214334e-18
	2.356930531555338e-20,-1.859487406386785e-18
	7.259538649568677e-10,2.771922689510657e-12
	1.088930777094632e-09,3.196737181685129e-12
	1.088930783784477e-09,3.196997152943145e-12
	-3.215614233074290e-12,-1.764442309857759e-07
	0.000000000000000e+00,0.000000000000000e+00
	6.793522183001213e-11,-6.064732280518188e-16
	-1.702553295914943e-01,3.098434022595504e-06
	-1.770297659476150e-01,3.224757227918193e-06
	-8.951483819433465e-08,-3.217692778889614e-11
	0.000000000000000e+00,0.000000000000000e+00
	0.000000000000000e+00,0.000000000000000e+00
	-8.851483821638848e+01,1.612389094297035e-03
	9.999999999949954e-01,1.392243383485496e-08
	-9.736636679544642e+02,1.773628809914325e-02
	1.000000000000000e+00,0.000000000000000e+00
	0.000000000000000e+00,0.000000000000000e+00
	2.903815061716881e+01,-5.303311670860907e-04
	-2.021150750443880e-01,-3.374005741913607e-06
	2.903815091091167e+01,-5.199303239120886e-04
	7.233737092749698e-01,-4.318165743446529e-06
	-9.736636679544642e+02,1.773628827135421e-02
	-9.736636679544644e+02,1.773628811431599e-02

 2	1.047128548050899e+00,0.000000000000000e+00
	0.000000000000000e+00,0.000000000000000e+00
	0.000000000000000e+00,0.000000000000000e+00
	7.233737092617302e-01,-4.419212610568717e-06
	7.233737092447226e-01,-4.419212778917456e-06
	7.233737092678598e-01,-4.419212594306017e-06
	7.233737096521041e-01,-4.419209912258943e-06
	7.233737101709163e-01,-4.419205586867850e-06
	7.233737094630468e-01,-4.419211245151214e-06
	-2.526533021415199e-12,-6.210149155282145e-14
	-6.316117808004111e-12,-8.123503140220204e-14
	-1.263440502007622e-12,-3.105110167323605e-14
	3.629838736017281e-10,3.523930044073567e-12
	9.074459679463424e-10,8.909740865694714e-12
	1.814920837550060e-10,1.761965311038027e-12
	9.117812484617575e-12,1.000413333020535e-13
	2.279451227290866e-11,2.336511236586561e-13
	4.558925019803066e-12,5.002071319765486e-14
	-2.085374071808320e-08,-1.586861049254418e-10
	-3.476847222084836e-08,-4.185091938076301e-10
	-1.042683592422464e-08,-7.934297806658116e-11
	-2.421212153929527e-08,-9.458182856540910e-11
	-3.644765327895003e-08,-2.375778165129195e-10
	-1.210607341748612e-08,-4.729094555892970e-11
	4.935945360932733e-20,-3.805306209175851e-18
	6.027526954218280e-20,-6.416475435268202e-18
	2.468009123316762e-20,-1.902800452920995e-18
	7.259538673030399e-10,2.836488597789035e-12
	1.088930779827555e-09,3.271198057899450e-12
	1.088930786486840e-09,3.271464084666537e-12
	-3.367277235758312e-12,-1.805541450932965e-07
	0.000000000000000e+00,0.000000000000000e+00
	6.794238247490356e-11,-1.691917729308665e-15
	-1.702553295888438e-01,3.170714991469414e-06
	-1.770297659448566e-01,3.299984984991018e-06
	-8.951483819193854e-08,-3.292743855354274e-11
	0.000000000000000e+00,0.000000000000000e+00
	0.000000000000000e+00,0.000000000000000e+00
	-8.851483821500931e+01,1.650003217458795e-03
	9.999999999949953e-01,1.360552054935063e-08
	-9.736636679392934e+02,1.815004364199481e-02
	1.000000000000000e+00,0.000000000000000e+00
	0.000000000000000e+00,0.000000000000000e+00
	2.903815061671519e+01,-5.427027863657790e-04
	-2.021150750451505e-01,-3.452466833684738e-06
	2.903815091046699e+01,-5.320596764323658e-04
	7.233737092739895e-01,-4.419212578043410e-06
	-9.736636679392934e+02,1.815004381821708e-02
	-9.736636679392934e+02,1.815004365752097e-02

 3	1.071519305237606e+00,0.000000000000000e+00
	0.000000000000000e+00,0.000000000000000e+00
	0.000000000000000e+00,0.000000000000000e+00
	7.233737092607038e-01,-4.522602570922350e-06
	7.233737092436963e-01,-4.522602743192422e-06
	7.233737092668333e-01,-4.522602554280848e-06
	7.233737096510777e-01,-4.522599809761111e-06
	7.233737101698900e-01,-4.522595383619041e-06
	7.233737094620203e-01,-4.522601173700314e-06
	-2.526532971505833e-12,-6.354801953327654e-14
	-6.316117742770884e-12,-8.312723440414622e-14
	-1.263440477052656e-12,-3.177437395325657e-14
	3.629838767088199e-10,3.606012691879229e-12
	9.074459756766156e-10,9.117274822139179e-12
	1.814920853085528e-10,1.803006641672470e-12
	9.117812514914807e-12,1.023715895929056e-13
	2.279451234105147e-11,2.390935431947444e-13
	4.558925034951710e-12,5.118584242727941e-14
	-2.085374085775388e-08,-1.623823660726630e-10
	-3.476847258886797e-08,-4.282575034350645e-10
	-1.042683599405992e-08,-8.119110690730462e-11
	-2.421212162244845e-08,-9.678490719488098e-11
	-3.644765348782171e-08,-2.431116919165058e-10
	-1.210607345906274e-08,-4.839248560217459e-11
	5.168569054968312e-20,-3.893943221758947e-18
	6.311595136375476e-20,-6.565934402303530e-18
	2.584322687823728e-20,-1.947122391396456e-18
	7.259538697597839e-10,2.902558449863220e-12
	1.088930782689276e-09,3.347393366618712e-12
	1.088930789316562e-09,3.347665589945838e-12
	-3.526087895546818e-12,-1.847597913981968e-07
	0.000000000000000e+00,0.000000000000000e+00
	6.794967272301911e-11,-4.187351853028653e-16
	-1.702553295860686e-01,3.244677115396527e-06
	-1.770297659419685e-01,3.376962440138042e-06
	-8.951483818942957e-08,-3.369304835132425e-11
	0.000000000000000e+00,0.000000000000000e+00
	0.000000000000000e+00,0.000000000000000e+00
	-8.851483821356521e+01,1.688492194164408e-03
	9.999999999949954e-01,1.329582109093192e-08
	-9.736636679234083e+02,1.857342257820298e-02
	1.000000000000000e+00,0.000000000000000e+00
	0.000000000000000e+00,0.000000000000000e+00
	2.903815061624020e+01,-5.553621538455235e-04
	-2.021150750459491e-01,-3.532758469066054e-06
	2.903815091000135e+01,-5.444711340349496e-04
	7.233737092729631e-01,-4.522602537639439e-06
	-9.736636679234083e+02,1.857342275852999e-02
	-9.736636679234084e+02,1.857342259409079e-02

 4	1.096478196143185e+00,0.000000000000000e+00
	0.000000000000000e+00,0.000000000000000e+00
	0.000000000000000e+00,0.000000000000000e+00
	7.233737092596286e-01,-4.628390475017535e-06
	7.233737092426211e-01,-4.628390651300283e-06
	7.233737092657582e-01,-4.628390457988406e-06
	7.233737096500026e-01,-4.628387649540828e-06
	7.233737101688149e-01,-4.628383120300984e-06
	7.233737094609451e-01,-4.628389045250141e-06
	-2.526532919244312e-12,-6.502824151486934e-14
	-6.316117674463316e-12,-8.506351256612136e-14
	-1.263440450921600e-12,-3.251449342694252e-14
	3.629838799623444e-10,3.690007295339824e-12
	9.074459837712053e-10,9.329642878361922e-12
	1.814920869353160e-10,1.845003950291180e-12
	9.117812546639893e-12,1.047561246555918e-13
	2.279451241240575e-11,2.446627332921784e-13
	4.558925050814282e-12,5.237811106807546e-14
	-2.085374100400703e-08,-1.661647244995105e-10
	-3.476847297423181e-08,-4.382328808588193e-10
	-1.042683606718643e-08,-8.308228434747660e-11
	-2.421212170952051e-08,-9.903930246309838e-11
	-3.644765370653720e-08,-2.487744683567358e-10
	-1.210607350259880e-08,-4.951968398176157e-11
	5.412155965937884e-20,-3.984644858769307e-18
	6.609051039495259e-20,-6.718874719784363e-18
	2.706117941740463e-20,-1.992476722031406e-18
	7.259538723323104e-10,2.970167276843029e-12
	1.088930785685866e-09,3.425363507603822e-12
	1.088930792279644e-09,3.425642071827456e-12
	-3.692383071140619e-12,-1.890633997897971e-07
	0.000000000000000e+00,0.000000000000000e+00
	6.795757440836046e-11,-8.212003425843193e-16
	-1.702553295831625e-01,3.320359610073615e-06
	-1.770297659389440e-01,3.455730403789597e-06
	-8.951483818680226e-08,-3.447819807433916e-11
	0.000000000000000e+00,0.000000000000000e+00
	0.000000000000000e+00,0.000000000000000e+00
	-8.851483821205301e+01,1.727876431778608e-03
	9.999999999949954e-01,1.299317125284661e-08
	-9.736636679067741e+02,1.900664938888189e-02
	1.000000000000000e+00,0.000000000000000e+00
	0.000000000000000e+00,0.000000000000000e+00
	2.903815061574281e+01,-5.683159816894706e-04
	-2.021150750467856e-01,-3.614923219745146e-06
	2.903815090951376e+01,-5.571712774388898e-04
	7.233737092718879e-01,-4.628390440959374e-06
	-9.736636679067741e+02,1.900664957340926e-02
	-9.736636679067742e+02,1.900664940513977e-02

 5	1.122018454301963e+00,0.000000000000000e+00
	0.000000000000000e+00,0.000000000000000e+00
	0.000000000000000e+00,0.000000000000000e+00
	7.233737092585030e-01,-4.736632413000911e-06
	7.233737092414954e-01,-4.736632593389801e-06
	7.233737092646326e-01,-4.736632395575125e-06
	7.233737096488769e-01,-4.736629521710630e-06
	7.233737101676891e-01,-4.736624886971546e-06
	7.233737094598196e-01,-4.736630949930074e-06
	-2.526532864519782e-12,-6.654294233088912e-14
	-6.316117602936508e-12,-8.704489252844078e-14
	-1.263440423559024e-12,-3.327185251543626e-14
	3.629838833692027e-10,3.775958389505510e-12
	9.074459922472813e-10,9.546957634716391e-12
	1.814920886387461e-10,1.887979504422890e-12
	9.117812579860143e-12,1.071962028021643e-13
	2.279451248712287e-11,2.503616468092628e-13
	4.558925067424439e-12,5.359815127665744e-14
	-2.085374115715288e-08,-1.700351856624698e-10
	-3.476847337775728e-08,-4.484406151559974e-10
	-1.042683614375929e-08,-8.501751311439969e-11
	-2.421212180069615e-08,-1.013462096802623e-10
	-3.644765393556042e-08,-2.545691483126072e-10
	-1.210607354818665e-08,-5.067313835318641e-11
	5.667222774336731e-20,-4.077459211715024e-18
	6.920525607427348e-20,-6.875377479057256e-18
	2.833653229129322e-20,-2.038887492442072e-18
	7.259538750260766e-10,3.039350925823119e-12
	1.088930788823680e-09,3.505149821655220e-12
	1.088930795382373e-09,3.505434874473862e-12
	-3.866515496901944e-12,-1.934672520982111e-07
	0.000000000000000e+00,0.000000000000000e+00
	6.796566988448345e-11,-1.595058975796486e-15
	-1.702553295801194e-01,3.397802603360776e-06
	-1.770297659357771e-01,3.536330641066730e-06
	-8.951483818405115e-08,-3.528199954416777e-11
	0.000000000000000e+00,0.000000000000000e+00
	0.000000000000000e+00,0.000000000000000e+00
	-8.851483821046953e+01,1.768176812345306e-03
	9.999999999949953e-01,1.269741056614451e-08
	-9.736636678893558e+02,1.944995377661893e-02
	1.000000000000000e+00,0.000000000000000e+00
	0.000000000000000e+00,0.000000000000000e+00
	2.903815061522199e+01,-5.815711381885465e-04
	-2.021150750476613e-01,-3.699004650560109e-06
	2.903815090900320e+01,-5.701668404282652e-04
	7.233737092707623e-01,-4.736632378149439e-06
	-9.736636678893558e+02,1.944995396544450e-02
	-9.736636678893559e+02,1.944995379325552e-02

 6	1.148153621496882e+00,0.000000000000000e+00
	0.000000000000000e+00,0.000000000000000e+00
	0.000000000000000e+00,0.000000000000000e+00
	7.233737092573242e-01,-4.847385776180346e-06
	7.233737092403167e-01,-4.847385960771023e-06
	7.233737092634538e-01,-4.847385758348666e-06
	7.233737096476982e-01,-4.847382817543491e-06
	7.233737101665105e-01,-4.847378074847770e-06
	7.233737094586408e-01,-4.847384279030330e-06
	-2.526532807216167e-12,-6.809292509575989e-14
	-6.316117528038754e-12,-8.907242484498957e-14
	-1.263440394906892e-12,-3.404685278055231e-14
	3.629838869366213e-10,3.863911546783689e-12
	9.074460011228224e-10,9.769334314361843e-12
	1.814920904224564e-10,1.931956090275038e-12
	9.117812614646012e-12,1.096931177943533e-13
	2.279451256536128e-11,2.561933053853755e-13
	4.558925084817407e-12,5.484660993449237e-14
	-2.085374131751627e-08,-1.739958017312620e-10
	-3.476847380030032e-08,-4.588861186023879e-10
	-1.042683622394091e-08,-8.699781929197229e-11
	-2.421212189616876e-08,-1.037068519991035e-10
	-3.644765417537717e-08,-2.604988042001057e-10
	-1.210607359592299e-08,-5.185346029321893e-11
	5.934310511061607e-20,-4.172435492315565e-18
	7.246679519488907e-20,-7.035525660348719e-18
	2.967199069433178e-20,-2.086379310393741e-18
	7.259538778467962e-10,3.110146078889596e-12
	1.088930792109376e-09,3.586794612532320e-12
	1.088930798631328e-09,3.587086305084813e-12
	-4.048854531051319e-12,-1.979736833042030e-07
	0.000000000000000e+00,0.000000000000000e+00
	6.797419580420948e-11,-5.381731100648373e-16
	-1.702553295769329e-01,3.477047156557755e-06
	-1.770297659324608e-01,3.618805889484264e-06
	-8.951483818117042e-08,-3.610267640397069e-11
	0.000000000000000e+00,0.000000000000000e+00
	0.000000000000000e+00,0.000000000000000e+00
	-8.851483820881143e+01,1.809414703659518e-03
	9.999999999949956e-01,1.240838221459469e-08
	-9.736636678711167e+02,1.990357078726617e-02
	1.000000000000000e+00,0.000000000000000e+00
	0.000000000000000e+00,0.000000000000000e+00
	2.903815061467662e+01,-5.951346514021145e-04
	-2.021150750485786e-01,-3.785047342598195e-06
	2.903815090846857e+01,-5.834647134225259e-04
	7.233737092695836e-01,-4.847385740517087e-06
	-9.736636678711167e+02,1.990357098049005e-02
	-9.736636678711168e+02,1.990357080429028e-02

 7	1.174897554939529e+00,0.000000000000000e+00
	0.000000000000000e+00,0.000000000000000e+00
	0.000000000000000e+00,0.000000000000000e+00
	7.233737092560901e-01,-4.960709287454560e-06
	7.233737092390826e-01,-4.960709476344896e-06
	7.233737092622197e-01,-4.960709269207529e-06
	7.233737096464641e-01,-4.960706259902422e-06
	7.233737101652764e-01,-4.960701406735423e-06
	7.233737094574066e-01,-4.960707755431556e-06
	-2.526532747211909e-12,-6.967901163086174e-14
	-6.316117449611162e-12,-9.114718454024180e-14
	-1.263440364904423e-12,-3.483990513769044e-14
	3.629838906721672e-10,3.953913401102092e-12
	9.074460104166548e-10,9.996890824356192e-12
	1.814920922902303e-10,1.976957024815313e-12
	9.117812651071292e-12,1.122481935295371e-13
	2.279451264728697e-11,2.621608010430821e-13
	4.558925103030081e-12,5.612414899088533e-14
	-2.085374148543736e-08,-1.780486726769311e-10
	-3.476847424275720e-08,-4.695749295421265e-10
	-1.042683630790138e-08,-8.902425286473192e-11
	-2.421212199614087e-08,-1.061224810634138e-10
	-3.644765442649614e-08,-2.665665800012402e-10
	-1.210607364590907e-08,-5.306127562416901e-11
	6.213985705009797e-20,-4.269624058596020e-18
	7.588204591853946e-20,-7.199404176764303e-18
	3.107038731283427e-20,-2.134977356848903e-18
	7.259538808004518e-10,3.182590272569339e-12
	1.088930795549921e-09,3.670341169383520e-12
	1.088930802033402e-09,3.670639656329188e-12
	-4.239786939125852e-12,-2.025850827772245e-07
	0.000000000000000e+00,0.000000000000000e+00
	6.798309887221738e-11,-1.655738057820008e-15
	-1.702553295735963e-01,3.558135286175165e-06
	-1.770297659289884e-01,3.703199874504414e-06
	-8.951483817815390e-08,-3.694466954584641e-11
	0.000000000000000e+00,0.000000000000000e+00
	0.000000000000000e+00,0.000000000000000e+00
	-8.851483820707520e+01,1.851611970596855e-03
	9.999999999949953e-01,1.212593295153940e-08
	-9.736636678520182e+02,2.036774093456462e-02
	1.000000000000000e+00,0.000000000000000e+00
	0.000000000000000e+00,0.000000000000000e+00
	2.903815061410554e+01,-6.090137128843446e-04
	-2.021150750495386e-01,-3.873096916833295e-06
	2.903815090790875e+01,-5.970719471298826e-04
	7.233737092683494e-01,-4.960709250960603e-06
	-9.736636678520182e+02,2.036774113228926e-02
	-9.736636678520183e+02,2.036774095198527e-02

 8	1.202264434617413e+00,0.000000000000000e+00
	0.000000000000000e+00,0.000000000000000e+00
	0.000000000000000e+00,0.000000000000000e+00
	7.233737092547977e-01,-5.076663032448782e-06
	7.233737092377901e-01,-5.076663225738929e-06
	7.233737092609273e-01,-5.076663013776726e-06
	7.233737096451716e-01,-5.076659934376113e-06
	7.233737101639839e-01,-5.076654968164623e-06
	7.233737094561141e-01,-5.076661464740489e-06
	-2.526532684379744e-12,-7.130204290027231e-14
	-6.316117367487406e-12,-9.327027167925369e-14
	-1.263440333487985e-12,-3.565143007370886e-14
	3.629838945837641e-10,4.046011672634712e-12
	9.074460201484925e-10,1.022974781817190e-11
	1.814920942460298e-10,2.023006168134626e-12
	9.117812689213237e-12,1.148627847426893e-13
	2.279451273307369e-11,2.682672978275664e-13
	4.558925122101090e-12,5.743144581395347e-14
	-2.085374166127233e-08,-1.821959473852768e-10
	-3.476847470606646e-08,-4.805127153241992e-10
	-1.042683639581879e-08,-9.109788827457099e-11
	-2.421212210082452e-08,-1.085943776716850e-10
	-3.644765468945001e-08,-2.727756929310245e-10
	-1.210607369825094e-08,-5.429722474570597e-11
	6.506841584762857e-20,-4.369076441589226e-18
	7.945825244988167e-20,-7.367099919312661e-18
	3.253468833350727e-20,-2.184707399319337e-18
	7.259538838933094e-10,3.256721917732365e-12
	1.088930799152615e-09,3.755833789698684e-12
	1.088930805595811e-09,3.756139229299333e-12
	-4.439717714360787e-12,-2.073038955422903e-07
	0.000000000000000e+00,0.000000000000000e+00
	6.799231281684012e-11,-9.492094816274977e-16
	-1.702553295701025e-01,3.641109986212223e-06
	-1.770297659253524e-01,3.789557346933817e-06
	-8.951483817499530e-08,-3.780442625611613e-11
	0.000000000000000e+00,0.000000000000000e+00
	0.000000000000000e+00,0.000000000000000e+00
	-8.851483820525719e+01,1.894790986706564e-03
	9.999999999949954e-01,1.184991301864072e-08
	-9.736636678320200e+02,2.084271032766789e-02
	1.000000000000000e+00,0.000000000000000e+00
	0.000000000000000e+00,0.000000000000000e+00
	2.903815061350757e+01,-6.232156814972710e-04
	-2.021150750505443e-01,-3.963200058314783e-06
	2.903815090732255e+01,-6.109957562856866e-04
	7.233737092670569e-01,-5.076662995104778e-06
	-9.736636678320200e+02,2.084271052999813e-02
	-9.736636678320201e+02,2.084271034549431e-02

 9	1.230268770812381e+00,0.000000000000000e+00
	0.000000000000000e+00,0.000000000000000e+00
	0.000000000000000e+00,0.000000000000000e+00
	7.233737092534442e-01,-5.195308491372936e-06
	7.233737092364366e-01,-5.195308689165382e-06
	7.233737092595738e-01,-5.195308472265957e-06
	7.233737096438181e-01,-5.195305321137099e-06
	7.233737101626303e-01,-5.195300239247966e-06
	7.233737094547608e-01,-5.195306887148138e-06
	-2.526532618586388e-12,-7.296287945665599e-14
	-6.316117281493272e-12,-9.544281195093133e-14
	-1.263440300590934e-12,-3.648185786987147e-14
	3.629838986797087e-10,4.140255193103655e-12
	9.074460303389772e-10,1.046802875966799e-11
	1.814920962940033e-10,2.070127936098034e-12
	9.117812729152763e-12,1.175382777246779e-13
	2.279451282290341e-11,2.745160334842496e-13
	4.558925142070891e-12,5.876919354977579e-14
	-2.085374184539414e-08,-1.864398247962214e-10
	-3.476847519121079e-08,-4.917052753073434e-10
	-1.042683648787961e-08,-9.321982499041967e-11
	-2.421212221044176e-08,-1.111238524562038e-10
	-3.644765496479650e-08,-2.791294351432855e-10
	-1.210607375305959e-08,-5.556196297440663e-11
	6.813499336903942e-20,-4.470845372659957e-18
	8.320300040241856e-20,-7.538701802978446e-18
	3.406799973512950e-20,-2.235595805529270e-18
	7.259538871319286e-10,3.332580319957769e-12
	1.088930802925098e-09,3.843317802796245e-12
	1.088930809326110e-09,3.843630357000074e-12
	-4.649070936734448e-12,-2.121326235763622e-07
	0.000000000000000e+00,0.000000000000000e+00
	6.800209084545792e-11,-1.515064755765308e-15
	-1.702553295664440e-01,3.726015250952718e-06
	-1.770297659215449e-01,3.877924091550082e-06
	-8.951483817168775e-08,-3.868549924845865e-11
	0.000000000000000e+00,0.000000000000000e+00
	0.000000000000000e+00,0.000000000000000e+00
	-8.851483820335346e+01,1.938974646074285e-03
	9.999999999949954e-01,1.158017606647665e-08
	-9.736636678110790e+02,2.132873080163246e-02
	1.000000000000000e+00,0.000000000000000e+00
	0.000000000000000e+00,0.000000000000000e+00
	2.903815061288140e+01,-6.377480873125565e-04
	-2.021150750515973e-01,-4.055404540920542e-06
	2.903815090670872e+01,-6.252435234777766e-04
	7.233737092657034e-01,-5.195308453159086e-06
	-9.736636678110790e+02,2.132873100867557e-02
	-9.736636678110791e+02,2.132873081987411e-02

 10	1.258925411794167e+00,0.000000000000000e+00
	0.000000000000000e+00,0.000000000000000e+00
	0.000000000000000e+00,0.000000000000000e+00
	7.233737091238548e-01,-5.316708570657957e-06
	7.233737091068472e-01,-5.316708773057572e-06
	7.233737091299843e-01,-5.316708551105924e-06
	7.233737095142286e-01,-5.316705326578050e-06
	7.233737100330409e-01,-5.316700126316790e-06
	7.233737093251713e-01,-5.316706929066071e-06
	-2.526532550941708e-12,-7.466240193442828e-14
	-6.316117194569805e-12,-9.766595731309722e-14
	-1.263440266768290e-12,-3.733162884843278e-14
	3.629839029674069e-10,4.236693931633209e-12
	9.074460410065192e-10,1.071185998850336e-11
	1.814920984378535e-10,2.118347313271780e-12
	9.117812769359016e-12,1.202760910359835e-13
	2.279451291292779e-11,2.809103211257122e-13
	4.558925162174054e-12,6.013810147925264e-14
	-2.085374203811968e-08,-1.907825550690437e-10
	-3.476847569909644e-08,-5.031585439331705e-10
	-1.042683658424229e-08,-9.539118809086254e-11
	-2.421212232513955e-08,-1.137122465775666e-10
	-3.644765525299090e-08,-2.856311754752003e-10
	-1.210607381040853e-08,-5.685616089101266e-11
	7.134609423612934e-20,-4.574984811449714e-18
	8.712423288829821e-20,-7.714300813841582e-18
	3.567357387662479e-20,-2.287669557388853e-18
	7.259538905206148e-10,3.410205700362046e-12
	1.088930806871527e-09,3.932839593843555e-12
	1.088930813228367e-09,3.933159428371027e-12
	-4.868290672476041e-12,-2.170738271341729e-07
	0.000000000000000e+00,0.000000000000000e+00
	6.768082649603531e-11,-1.107647149675801e-15
	-1.702553295620203e-01,3.812896098273611e-06
	-1.770297659169325e-01,3.968346963795325e-06
	-8.951483816791168e-08,-3.958611216603458e-11
	0.000000000000000e+00,0.000000000000000e+00
	0.000000000000000e+00,0.000000000000000e+00
	-8.851483820104730e+01,1.984186375451520e-03
	9.999999999949954e-01,1.131657907690526e-08
	-9.736636677857113e+02,2.182606005084202e-02
	1.000000000000000e+00,0.000000000000000e+00
	0.000000000000000e+00,0.000000000000000e+00
	2.903815061212314e+01,-6.526186356009906e-04
	-2.021150751526498e-01,-4.149759251937384e-06
	2.903815090596338e+01,-6.398228030578228e-04
	7.233737091361140e-01,-5.316708531554000e-06
	-9.736636677857113e+02,2.182606026270779e-02
	-9.736636677857114e+02,2.182606006950857e-02

 11	1.288249551693134e+00,0.000000000000000e+00
	0.000000000000000e+00,0.000000000000000e+00
	0.000000000000000e+00,0.000000000000000e+00
	7.233737091223709e-01,-5.440927640132906e-06
	7.233737091053632e-01,-5.440927847247004e-06
	7.233737091285004e-01,-5.440927620125449e-06
	7.233737095127447e-01,-5.440924320488874e-06
	7.233737100315570e-01,-5.440918999098238e-06
	7.233737093236874e-01,-5.440925960303537e-06
	-2.526532478800726e-12,-7.640151136997076e-14
	-6.316117100279108e-12,-9.994088641152933e-14
	-1.263440230697390e-12,-3.820119353274726e-14
	3.629839074585209e-10,4.335379021391956e-12
	9.074460521801633e-10,1.096137078731827e-11
	1.814921006834118e-10,2.167689866244348e-12
	9.117812813151832e-12,1.230776763435985e-13
	2.279451301142412e-11,2.874535511863098e-13
	4.558925184070503e-12,6.153889543655552e-14
	-2.085374224000522e-08,-1.952264407781219e-10
	-3.476847623104662e-08,-5.148785938797492e-10
	-1.042683668518498e-08,-9.761312886200914e-11
	-2.421212244533247e-08,-1.163609324373748e-10
	-3.644765555490232e-08,-2.922843612375062e-10
	-1.210607387050503e-08,-5.818050469677863e-11
	7.470852962482415e-20,-4.681549974552405e-18
	9.123026736792211e-20,-7.893990057428937e-18
	3.735481639624382e-20,-2.340956265333111e-18
	7.259538940716900e-10,3.489639216972684e-12
	1.088930811007972e-09,4.024446628506047e-12
	1.088930817318559e-09,4.024773912937755e-12
	-5.097841916079354e-12,-2.221301261087218e-07
	0.000000000000000e+00,0.000000000000000e+00
	6.769143553004326e-11,-1.030417236725259e-15
	-1.702553295580088e-01,3.901798593584718e-06
	-1.770297659127577e-01,4.060873905810555e-06
	-8.951483816428506e-08,-4.050804136568331e-11
	0.000000000000000e+00,0.000000000000000e+00
	0.000000000000000e+00,0.000000000000000e+00
	-8.851483819895989e+01,2.030450146713683e-03
	9.999999999949954e-01,1.105898228739352e-08
	-9.736636677627497e+02,2.233496176604596e-02
	1.000000000000000e+00,0.000000000000000e+00
	0.000000000000000e+00,0.000000000000000e+00
	2.903815061143656e+01,-6.678352109300430e-04
	-2.021150751538042e-01,-4.246314220964289e-06
	2.903815090529033e+01,-6.547413251586831e-04
	7.233737091346301e-01,-5.440927600118106e-06
	-9.736636677627497e+02,2.233496198284671e-02
	-9.736636677627498e+02,2.233496178514731e-02

 12	1.318256738556407e+00,0.000000000000000e+00
	0.000000000000000e+00,0.000000000000000e+00
	0.000000000000000e+00,0.000000000000000e+00
	7.233737091208171e-01,-5.568031561452678e-06
	7.233737091038095e-01,-5.568031773391076e-06
	7.233737091269467e-01,-5.568031540979192e-06
	7.233737095111910e-01,-5.568028164484403e-06
	7.233737100300033e-01,-5.568022719142921e-06
	7.233737093221335e-01,-5.568029842495161e-06
	-2.526532403259849e-12,-7.818112989817631e-14
	-6.316117001544637e-12,-1.022688054908645e-13
	-1.263440192926524e-12,-3.909101299554596e-14
	3.629839121612946e-10,4.436362786483770e-12
	9.074460638804055e-10,1.121669344999149e-11
	1.814921030347999e-10,2.218181757071965e-12
	9.117812859008542e-12,1.259445190643082e-13
	2.279451311456245e-11,2.941491929245863e-13
	4.558925206998902e-12,6.297231813076834e-14
	-2.085374245140536e-08,-1.997738381297937e-10
	-3.476847678806686e-08,-5.268716392708820e-10