Title: **.subckt opamp_openloop
Date: Thu Apr  1 12:26:17  2021
Plotname: AC Analysis
Flags: complex
No. Variables: 49
No. Points: 1001
Variables:
	0	frequency	frequency grid=3
	1	dcg	notype dims=1
	2	gbw	notype dims=1
	3	v(m.x1.xm1.msky130_fd_pr__pfet_01v8#body)	voltage
	4	v(m.x1.xm1.msky130_fd_pr__pfet_01v8#dbody)	voltage
	5	v(m.x1.xm1.msky130_fd_pr__pfet_01v8#sbody)	voltage
	6	v(m.x1.xm2.msky130_fd_pr__pfet_01v8#body)	voltage
	7	v(m.x1.xm2.msky130_fd_pr__pfet_01v8#dbody)	voltage
	8	v(m.x1.xm2.msky130_fd_pr__pfet_01v8#sbody)	voltage
	9	v(m.x1.xm3.msky130_fd_pr__nfet_01v8#body)	voltage
	10	v(m.x1.xm3.msky130_fd_pr__nfet_01v8#dbody)	voltage
	11	v(m.x1.xm3.msky130_fd_pr__nfet_01v8#sbody)	voltage
	12	v(m.x1.xm4.msky130_fd_pr__nfet_01v8#body)	voltage
	13	v(m.x1.xm4.msky130_fd_pr__nfet_01v8#dbody)	voltage
	14	v(m.x1.xm4.msky130_fd_pr__nfet_01v8#sbody)	voltage
	15	v(m.x1.xm5.msky130_fd_pr__pfet_01v8#body)	voltage
	16	v(m.x1.xm5.msky130_fd_pr__pfet_01v8#dbody)	voltage
	17	v(m.x1.xm5.msky130_fd_pr__pfet_01v8#sbody)	voltage
	18	v(m.x1.xm6.msky130_fd_pr__nfet_01v8#body)	voltage
	19	v(m.x1.xm6.msky130_fd_pr__nfet_01v8#dbody)	voltage
	20	v(m.x1.xm6.msky130_fd_pr__nfet_01v8#sbody)	voltage
	21	v(m.x1.xm7.msky130_fd_pr__pfet_01v8#body)	voltage
	22	v(m.x1.xm7.msky130_fd_pr__pfet_01v8#dbody)	voltage
	23	v(m.x1.xm7.msky130_fd_pr__pfet_01v8#sbody)	voltage
	24	v(m.x1.xm8.msky130_fd_pr__pfet_01v8#body)	voltage
	25	v(m.x1.xm8.msky130_fd_pr__pfet_01v8#dbody)	voltage
	26	v(m.x1.xm8.msky130_fd_pr__pfet_01v8#sbody)	voltage
	27	v(m.x1.xm9.msky130_fd_pr__nfet_01v8#body)	voltage
	28	v(m.x1.xm9.msky130_fd_pr__nfet_01v8#dbody)	voltage
	29	v(m.x1.xm9.msky130_fd_pr__nfet_01v8#sbody)	voltage
	30	v(net1)	voltage
	31	pm	notype dims=1
	32	i(v1)	current
	33	i(v2)	current
	34	i(v3)	current
	35	i(v4)	current
	36	v(vcm)	voltage
	37	v(vdd)	voltage
	38	v(ve)	voltage
	39	v(vin)	voltage
	40	v(vout)	voltage
	41	v(vsen)	voltage
	42	v(vss)	voltage
	43	v(x1.net1)	voltage
	44	v(x1.vbn)	voltage
	45	v(x1.voe1)	voltage
	46	v(x1.vp)	voltage
	47	v(x1.xc1.a)	voltage
	48	v(x1.xc1.b1)	voltage
Values:
 0	1.000000000000000e+00,0.000000000000000e+00
	5.738942000000000e+01,0.0
	4.830063000000000e+07,0.0
	7.043344829295274e-01,-3.123271401387500e-06
	7.043344829129496e-01,-3.123271552133052e-06
	7.043344829354685e-01,-3.123271390835562e-06
	7.043344832386569e-01,-3.123269506695151e-06
	7.043344836519814e-01,-3.123266401036782e-06
	7.043344830900332e-01,-3.123270443489465e-06
	-2.455371549686411e-12,-5.346077737444573e-14
	-6.138246833556633e-12,-6.670095073237580e-14
	-1.227861181250639e-12,-2.673068027618087e-14
	2.897798059199325e-10,2.285458131262435e-12
	7.244465291827025e-10,5.808207525063715e-12
	1.448900566233419e-10,1.142729312592796e-12
	8.824430075321714e-12,8.119017166206140e-14
	2.206106009415527e-11,1.969966344464691e-13
	4.412230066626734e-12,4.059511951397637e-14
	-1.784488925224295e-08,-9.576810623023788e-11
	-2.743263616771915e-08,-2.560042883117130e-10
	-8.922416744963762e-09,-4.788400420337405e-11
	-1.964335922051561e-08,-6.433969229029987e-11
	-2.833186455221657e-08,-1.617264775332222e-10
	-9.821690467166246e-09,-3.216987043185503e-11
	3.023442801813991e-20,-2.133909070325808e-18
	3.638000991374287e-20,-4.042760863921676e-18
	1.511743459210839e-20,-1.067053129148103e-18
	5.795564341216043e-10,1.919106913715455e-12
	8.693346402374149e-10,2.181602828622802e-12
	8.693346428498668e-10,2.181723831112552e-12
	-1.699625833751290e-12,-1.190331048697805e-07
	1.142698000000000e+00,0.0
	3.533723365875975e-10,-4.530202317938898e-15
	-1.475938430966847e-01,2.104247272471602e-06
	-1.346195368897737e-01,1.921144103894766e-06
	-6.830973427551227e-08,-3.203215470648502e-11
	0.000000000000000e+00,0.000000000000000e+00
	0.000000000000000e+00,0.000000000000000e+00
	-6.730973429001976e+01,9.605836879212305e-04
	9.999999999949020e-01,1.087183187124165e-08
	-7.404074187388887e+02,1.056642536999761e-02
	1.000000000000000e+00,0.000000000000000e+00
	0.000000000000000e+00,0.000000000000000e+00
	2.318225317284525e+01,-3.292045143637998e-04
	-1.964233723811412e-01,-2.230636446748806e-06
	2.318225328763544e+01,-3.243626435284434e-04
	7.043344829414097e-01,-3.123271380283706e-06
	-7.404074187388887e+02,1.056642549815659e-02
	-7.404074187388887e+02,1.056642538128913e-02

 1	1.023292992280754e+00,0.000000000000000e+00
	0.000000000000000e+00,0.000000000000000e+00
	0.000000000000000e+00,0.000000000000000e+00
	7.043344829289371e-01,-3.196374405750516e-06
	7.043344829123593e-01,-3.196374560007373e-06
	7.043344829348782e-01,-3.196374394952794e-06
	7.043344832380667e-01,-3.196372466925268e-06
	7.043344836513912e-01,-3.196369288927028e-06
	7.043344830894430e-01,-3.196373425540250e-06
	-2.455371521121516e-12,-5.470603761983759e-14
	-6.138246797942556e-12,-6.825461238956354e-14
	-1.227861166968038e-12,-2.735331719076832e-14
	2.897798074682576e-10,2.338693144753806e-12
	7.244465330356660e-10,5.943497695316142e-12
	1.448900573975050e-10,1.169346825090879e-12
	8.824430093240220e-12,8.308132928529073e-14
	2.206106013588181e-11,2.015852644855840e-13
	4.412230075586004e-12,4.154069911016011e-14
	-1.784488931680909e-08,-9.799882305333858e-11
	-2.743263634008644e-08,-2.619673804848834e-10
	-8.922416777246798e-09,-4.899936147563746e-11
	-1.964335926382195e-08,-6.583834640989692e-11
	-2.833186466107370e-08,-1.654935569383516e-10
	-9.821690488819431e-09,-3.291919805735815e-11
	3.165933161812297e-20,-2.183614218664260e-18
	3.809454488728674e-20,-4.136928886588658e-18
	1.582989678780773e-20,-1.091907999866417e-18
	5.795564353887027e-10,1.963808366034124e-12
	8.693346416894561e-10,2.232418451163431e-12
	8.693346442898843e-10,2.232542272163416e-12
	-1.779787720935343e-12,-1.218057420615017e-07
	0.000000000000000e+00,0.000000000000000e+00
	3.533758529941757e-10,-4.615262284420623e-15
	-1.475938430952755e-01,2.153335389727685e-06
	-1.346195368884871e-01,1.965960704108371e-06
	-6.830973427420237e-08,-3.277822457903312e-11
	0.000000000000000e+00,0.000000000000000e+00
	0.000000000000000e+00,0.000000000000000e+00
	-6.730973428937646e+01,9.829922590372517e-04
	9.999999999949020e-01,1.062435876434727e-08
	-7.404074187318125e+02,1.081291976431794e-02
	1.000000000000000e+00,0.000000000000000e+00
	0.000000000000000e+00,0.000000000000000e+00
	2.318225317262479e+01,-3.368842801724119e-04
	-1.964233723815609e-01,-2.282496293002046e-06
	2.318225328741823e+01,-3.319296276771681e-04
	7.043344829408195e-01,-3.196374384155157e-06
	-7.404074187318125e+02,1.081291989546213e-02
	-7.404074187318126e+02,1.081291977587247e-02

 2	1.047128548050899e+00,0.000000000000000e+00
	0.000000000000000e+00,0.000000000000000e+00
	0.000000000000000e+00,0.000000000000000e+00
	7.043344829283187e-01,-3.271172170130237e-06
	7.043344829117409e-01,-3.271172327980190e-06
	7.043344829342598e-01,-3.271172159081006e-06
	7.043344832374483e-01,-3.271170186144099e-06
	7.043344836507728e-01,-3.271166934120973e-06
	7.043344830888246e-01,-3.271171167088019e-06
	-2.455371491210402e-12,-5.598030373050650e-14
	-6.138246760650043e-12,-6.984446354571054e-14
	-1.227861152012319e-12,-2.799045719619978e-14
	2.897798090895528e-10,2.393168164304683e-12
	7.244465370702137e-10,6.081939186712842e-12
	1.448900582081531e-10,1.196584340752707e-12
	8.824430112003190e-12,8.501653772901070e-14
	2.206106017957486e-11,2.062807777002091e-13
	4.412230084967505e-12,4.250830413486429e-14
	-1.784488938441812e-08,-1.002815001495014e-10
	-2.743263652057713e-08,-2.680693712304985e-10
	-8.922416811051283e-09,-5.014069885789420e-11
	-1.964335930916922e-08,-6.737190889217469e-11
	-2.833186477506108e-08,-1.693483832177867e-10
	-9.821690511493085e-09,-3.368597987737871e-11
	3.315138885585650e-20,-2.234477150129412e-18
	3.988988340468103e-20,-4.233290366073752e-18
	1.657593629231691e-20,-1.117341815641592e-18
	5.795564367155169e-10,2.009551055540804e-12
	8.693346432099289e-10,2.284417731514429e-12
	8.693346457977667e-10,2.284544436676196e-12
	-1.863727521469759e-12,-1.246429622698436e-07
	0.000000000000000e+00,0.000000000000000e+00
	3.533797949930126e-10,-5.086889299216133e-15
	-1.475938430937997e-01,2.203565233908227e-06
	-1.346195368871398e-01,2.011819682323969e-06
	-6.830973427283074e-08,-3.354205801997523e-11
	0.000000000000000e+00,0.000000000000000e+00
	0.000000000000000e+00,0.000000000000000e+00
	-6.730973428870281e+01,1.005922025659570e-03
	9.999999999949019e-01,1.038251883309976e-08
	-7.404074187244023e+02,1.106514731181348e-02
	1.000000000000000e+00,0.000000000000000e+00
	0.000000000000000e+00,0.000000000000000e+00
	2.318225317239392e+01,-3.447426664852588e-04
	-1.964233723820006e-01,-2.335566349000652e-06
	2.318225328719078e+01,-3.396726053077962e-04
	7.043344829402011e-01,-3.271172148031863e-06
	-7.404074187244023e+02,1.106514744601241e-02
	-7.404074187244024e+02,1.106514732363716e-02

 3	1.071519305237606e+00,0.000000000000000e+00
	0.000000000000000e+00,0.000000000000000e+00
	0.000000000000000e+00,0.000000000000000e+00
	7.043344829276709e-01,-3.347704353291253e-06
	7.043344829110931e-01,-3.347704514817997e-06
	7.043344829336120e-01,-3.347704341984656e-06
	7.043344832368005e-01,-3.347702323092290e-06
	7.043344836501249e-01,-3.347698995320012e-06
	7.043344830881768e-01,-3.347703326885258e-06
	-2.455371459889621e-12,-5.728425133921210e-14
	-6.138246721599996e-12,-7.147134716094498e-14
	-1.227861136351760e-12,-2.864243811254008e-14
	2.897798107872573e-10,2.448912073291348e-12
	7.244465412949036e-10,6.223605402764678e-12
	1.448900590570060e-10,1.224456301269542e-12
	8.824430131650433e-12,8.699682306635308e-14
	2.206106022532709e-11,2.110856637136018e-13
	4.412230094791145e-12,4.349844762508049e-14
	-1.784488945521347e-08,-1.026173478243312e-10
	-2.743263670957407e-08,-2.743134959048048e-10
	-8.922416846448920e-09,-5.130862150232861e-11
	-1.964335935665366e-08,-6.894119285225608e-11
	-2.833186489442053e-08,-1.732930002514348e-10
	-9.821690535235321e-09,-3.447062244978508e-11
	3.471376458478120e-20,-2.286524833061273e-18
	4.176983361962142e-20,-4.331896394677931e-18
	1.735713555544621e-20,-1.143368061889658e-18
	5.795564381048622e-10,2.056359235614826e-12
	8.693346448020597e-10,2.337628240382387e-12
	8.693346473767140e-10,2.337757896886711e-12
	-1.951623282925248e-12,-1.275462698265079e-07
	0.000000000000000e+00,0.000000000000000e+00
	3.533839120335619e-10,-5.540339531371193e-15
	-1.475938430922543e-01,2.254963437541346e-06
	-1.346195368857289e-01,2.058745353983697e-06
	-6.830973427139442e-08,-3.432365502931134e-11
	0.000000000000000e+00,0.000000000000000e+00
	0.000000000000000e+00,0.000000000000000e+00
	-6.730973428799739e+01,1.029385145453897e-03
	9.999999999949019e-01,1.014618385076644e-08
	-7.404074187166426e+02,1.132324174686787e-02
	1.000000000000000e+00,0.000000000000000e+00
	0.000000000000000e+00,0.000000000000000e+00
	2.318225317215217e+01,-3.527838399227602e-04
	-1.964233723824612e-01,-2.389874753190670e-06
	2.318225328695260e+01,-3.475956818495372e-04
	7.043344829395533e-01,-3.347704330678149e-06
	-7.404074187166426e+02,1.132324188419268e-02
	-7.404074187166427e+02,1.132324175896695e-02

 4	1.096478196143185e+00,0.000000000000000e+00
	0.000000000000000e+00,0.000000000000000e+00
	0.000000000000000e+00,0.000000000000000e+00
	7.043344829269930e-01,-3.426011533609927e-06
	7.043344829104152e-01,-3.426011698899104e-06
	7.043344829329341e-01,-3.426011522039969e-06
	7.043344832361226e-01,-3.426009456121699e-06
	7.043344836494470e-01,-3.426006050835841e-06
	7.043344830874989e-01,-3.426010483295940e-06
	-2.455371427092735e-12,-5.861857181623702e-14
	-6.138246680709567e-12,-7.313612583049490e-14
	-1.227861119953139e-12,-2.930960562870143e-14
	2.897798125649723e-10,2.505954427872038e-12
	7.244465457186977e-10,6.368571456774166e-12
	1.448900599458641e-10,1.252977484723697e-12
	8.824430152223620e-12,8.902323527081547e-14
	2.206106027323555e-11,2.160024701399259e-13
	4.412230105077758e-12,4.451165456799311e-14
	-1.784488952934531e-08,-1.050076045751772e-10
	-2.743263690747819e-08,-2.807030652253370e-10
	-8.922416883514804e-09,-5.250374865698268e-11
	-1.964335940637596e-08,-7.054703034526428e-11
	-2.833186501940523e-08,-1.773294995274492e-10
	-9.821690560096494e-09,-3.527354180245296e-11
	3.634977281328499e-20,-2.339784863980812e-18
	4.373838315855770e-20,-4.432799254803913e-18
	1.817515160556767e-20,-1.170000538146147e-18
	5.795564395596853e-10,2.104257724572710e-12
	8.693346464692255e-10,2.392078190683281e-12
	8.693346490300749e-10,2.392210867275773e-12
	-2.043661443995993e-12,-1.305172041035826e-07
	0.000000000000000e+00,0.000000000000000e+00
	3.533881690340871e-10,-6.449622233743265e-15
	-1.475938430906363e-01,2.307557252634795e-06
	-1.346195368842517e-01,2.106762599225901e-06
	-6.830973426989047e-08,-3.512390378546115e-11
	0.000000000000000e+00,0.000000000000000e+00
	0.000000000000000e+00,0.000000000000000e+00
	-6.730973428725876e+01,1.053394058876852e-03
	9.999999999949017e-01,9.915228509411421e-09
	-7.404074187085178e+02,1.158733991456610e-02
	1.000000000000000e+00,0.000000000000000e+00
	0.000000000000000e+00,0.000000000000000e+00
	2.318225317189904e+01,-3.610120640214867e-04
	-1.964233723829433e-01,-2.445450300606736e-06
	2.318225328670321e+01,-3.557030582224247e-04
	7.043344829388754e-01,-3.426011510470101e-06
	-7.404074187085178e+02,1.158734005508962e-02
	-7.404074187085178e+02,1.158733992694700e-02

 5	1.122018454301963e+00,0.000000000000000e+00
	0.000000000000000e+00,0.000000000000000e+00
	0.000000000000000e+00,0.000000000000000e+00
	7.043344829262831e-01,-3.506135230589592e-06
	7.043344829097054e-01,-3.506135399728841e-06
	7.043344829322242e-01,-3.506135218750138e-06
	7.043344832354127e-01,-3.506133104710588e-06
	7.043344836487371e-01,-3.506129620105622e-06
	7.043344830867890e-01,-3.506134155810723e-06
	-2.455371392750180e-12,-5.998397263596100e-14
	-6.138246637892035e-12,-7.483968224204812e-14
	-1.227861102781677e-12,-2.999231348573239e-14
	2.897798144264683e-10,2.564325472658030e-12
	7.244465503509784e-10,6.516914211661563e-12
	1.448900608766127e-10,1.282163013424078e-12
	8.824430173766397e-12,9.109684877297068e-14
	2.206106032340189e-11,2.210338039350285e-13
	4.412230115849166e-12,4.554846217933427e-14
	-1.784488960697087e-08,-1.074535377478001e-10
	-2.743263711470923e-08,-2.872414670263056e-10
	-8.922416922327546e-09,-5.372671399408958e-11
	-1.964335945844161e-08,-7.219027280748887e-11
	-2.833186515028027e-08,-1.814600212511630e-10
	-9.821690586129335e-09,-3.609516365384850e-11
	3.806288373415898e-20,-2.394285482222707e-18
	4.579970757898397e-20,-4.536052446677836e-18
	1.903171956439443e-20,-1.197253365383146e-18
	5.795564410830723e-10,2.153271918827170e-12
	8.693346482149624e-10,2.447796452501326e-12
	8.693346507613562e-10,2.447932219528893e-12
	-2.140037229961118e-12,-1.335573403297374e-07
	0.000000000000000e+00,0.000000000000000e+00
	3.533927460719166e-10,-6.502736588210673e-15
	-1.475938430889418e-01,2.361374565125337e-06
	-1.346195368827048e-01,2.155896878741930e-06
	-6.830973426831561e-08,-3.594191611000497e-11
	0.000000000000000e+00,0.000000000000000e+00
	0.000000000000000e+00,0.000000000000000e+00
	-6.730973428648531e+01,1.077961495772055e-03
	9.999999999949017e-01,9.689530353455651e-09
	-7.404074187000098e+02,1.185758184325163e-02
	1.000000000000000e+00,0.000000000000000e+00
	0.000000000000000e+00,0.000000000000000e+00
	2.318225317163397e+01,-3.694317014947441e-04
	-1.964233723834481e-01,-2.502322458139588e-06
	2.318225328644206e+01,-3.639990330647009e-04
	7.043344829381655e-01,-3.506135206910776e-06
	-7.404074187000098e+02,1.185758198704837e-02
	-7.404074187000099e+02,1.185758185592093e-02

 6	1.148153621496882e+00,0.000000000000000e+00
	0.000000000000000e+00,0.000000000000000e+00
	0.000000000000000e+00,0.000000000000000e+00
	7.043344829255399e-01,-3.588117926874755e-06
	7.043344829089622e-01,-3.588118099953756e-06
	7.043344829314810e-01,-3.588117914759527e-06
	7.043344832346695e-01,-3.588115751477805e-06
	7.043344836479939e-01,-3.588112185706147e-06
	7.043344830860458e-01,-3.588116827061140e-06
	-2.455371356789108e-12,-6.138117775197274e-14
	-6.138246593056568e-12,-7.658291964376434e-14
	-1.227861084800947e-12,-3.069092366437590e-14
	2.897798163756940e-10,2.624056156749711e-12
	7.244465552015716e-10,6.668712320718594e-12
	1.448900618512262e-10,1.312028361924224e-12
	8.824430196324454e-12,9.321876303014440e-14
	2.206106037593249e-11,2.261823327786841e-13
	4.412230127128215e-12,4.660942018822296e-14
	-1.784488968825480e-08,-1.099564442083359e-10
	-2.743263733170676e-08,-2.939321680548704e-10
	-8.922416962969474e-09,-5.497816594605493e-11
	-1.964335951296103e-08,-7.387179150782897e-11
	-2.833186528732325e-08,-1.856867554798547e-10
	-9.821690613389067e-09,-3.693592363875017e-11
	3.985673108534166e-20,-2.450055584908994e-18
	4.795817922635598e-20,-4.641710716716725e-18
	1.992865632740650e-20,-1.225140993496814e-18
	5.795564426782542e-10,2.203427806352629e-12
	8.693346500429732e-10,2.504812568396281e-12
	8.693346525742301e-10,2.504951497844420e-12
	-2.240955066783672e-12,-1.366682904254306e-07
	0.000000000000000e+00,0.000000000000000e+00
	3.533973719249337e-10,-6.154165891367314e-15
	-1.475938430871675e-01,2.416443909664241e-06
	-1.346195368810849e-01,2.206174243722536e-06
	-6.830973426666655e-08,-3.677858018136249e-11
	0.000000000000000e+00,0.000000000000000e+00
	0.000000000000000e+00,0.000000000000000e+00
	-6.730973428567539e+01,1.103100482119656e-03
	9.999999999949019e-01,9.468969714749385e-09
	-7.404074186911007e+02,1.213411081877128e-02
	1.000000000000000e+00,0.000000000000000e+00
	0.000000000000000e+00,0.000000000000000e+00
	2.318225317135641e+01,-3.780472165457409e-04
	-1.964233723839766e-01,-2.560521380159797e-06
	2.318225328616860e+01,-3.724880050120108e-04
	7.043344829374223e-01,-3.588117902644393e-06
	-7.404074186911007e+02,1.213411096591747e-02
	-7.404074186911007e+02,1.213411083173568e-02

 7	1.174897554939529e+00,0.000000000000000e+00
	0.000000000000000e+00,0.000000000000000e+00
	0.000000000000000e+00,0.000000000000000e+00
	7.043344829247614e-01,-3.672003090775950e-06
	7.043344829081837e-01,-3.672003267886471e-06
	7.043344829307026e-01,-3.672003078378524e-06
	7.043344832338910e-01,-3.672000864707630e-06
	7.043344836472154e-01,-3.671997215878660e-06
	7.043344830852674e-01,-3.672001965344455e-06
	-2.455371319133245e-12,-6.281092798092008e-14
	-6.138246546108076e-12,-7.836676232318984e-14
	-1.227861065972812e-12,-3.140580657699645e-14
	2.897798184167837e-10,2.685178150146220e-12
	7.244465602807661e-10,6.824046269311468e-12
	1.448900628717717e-10,1.342589365227124e-12
	8.824430219945638e-12,9.539010310936183e-14
	2.206106043093877e-11,2.314507864890326e-13
	4.412230138938829e-12,4.769509112863852e-14
	-1.784488977336953e-08,-1.125176510309116e-10
	-2.743263755893107e-08,-3.007787158092565e-10
	-8.922417005526797e-09,-5.625876804926445e-11
	-1.964335957004987e-08,-7.559247800975147e-11
	-2.833186543082486e-08,-1.900119432839461e-10
	-9.821690641933510e-09,-3.779626753922794e-11
	4.173511985756424e-20,-2.507124742271531e-18
	5.021837650842195e-20,-4.749830086556766e-18
	2.086786441772966e-20,-1.253678208969318e-18
	5.795564443486145e-10,2.254751980464377e-12
	8.693346519571354e-10,2.563156769067303e-12
	8.693346544725420e-10,2.563298934598270e-12
	-2.346629014725512e-12,-1.398517038575709e-07
	0.000000000000000e+00,0.000000000000000e+00
	3.534022119101997e-10,-5.848297635865554e-15
	-1.475938430853095e-01,2.472794484746728e-06
	-1.346195368793887e-01,2.257621351447398e-06
	-6.830973426493970e-08,-3.763478417795341e-11
	0.000000000000000e+00,0.000000000000000e+00
	0.000000000000000e+00,0.000000000000000e+00
	-6.730973428482730e+01,1.128824346942888e-03
	9.999999999949019e-01,9.253429649122501e-09
	-7.404074186817717e+02,1.241707346044724e-02
	1.000000000000000e+00,0.000000000000000e+00
	0.000000000000000e+00,0.000000000000000e+00
	2.318225317106577e+01,-3.868631772345684e-04
	-1.964233723845300e-01,-2.620077924506032e-06
	2.318225328588225e+01,-3.811744750296179e-04
	7.043344829366438e-01,-3.672003065981195e-06
	-7.404074186817717e+02,1.241707361102091e-02
	-7.404074186817718e+02,1.241707347371362e-02

 8	1.202264434617413e+00,0.000000000000000e+00
	0.000000000000000e+00,0.000000000000000e+00
	0.000000000000000e+00,0.000000000000000e+00
	7.043344829239464e-01,-3.757835199317200e-06
	7.043344829073687e-01,-3.757835380553149e-06
	7.043344829298875e-01,-3.757835186631004e-06
	7.043344832330760e-01,-3.757832921397221e-06
	7.043344836464005e-01,-3.757829187576282e-06
	7.043344830844523e-01,-3.757834047671107e-06
	-2.455371279702714e-12,-6.427398139530047e-14
	-6.138246496946967e-12,-8.019215609732655e-14
	-1.227861046257334e-12,-3.213734126397743e-14
	2.897798205540671e-10,2.747723860537287e-12
	7.244465655993360e-10,6.982998417555288e-12
	1.448900639404141e-10,1.373862227181148e-12
	8.824430244680054e-12,9.761202028387342e-14
	2.206106048853743e-11,2.368419584699660e-13
	4.412230151306060e-12,4.880605063768380e-14
	-1.784488986249559e-08,-1.151385162012772e-10
	-2.743263779686413e-08,-3.077847404196843e-10
	-8.922417050089787e-09,-5.756919929589961e-11
	-1.964335962982923e-08,-7.735324464400969e-11
	-2.833186558108951e-08,-1.944378779352462e-10
	-9.821690671823212e-09,-3.867665152100288e-11
	4.370203436524602e-20,-2.565523213331405e-18
	5.258509360663922e-20,-4.860467882757767e-18
	2.185133602164202e-20,-1.282880142709264e-18
	5.795564460976964e-10,2.307271653918712e-12
	8.693346539615090e-10,2.622859989381665e-12
	8.693346564603186e-10,2.623005466373531e-12
	-2.457283222397814e-12,-1.431092685140864e-07
	0.000000000000000e+00,0.000000000000000e+00
	3.534074789501467e-10,-6.019173974756823e-15
	-1.475938430833641e-01,2.530456168193403e-06
	-1.346195368776126e-01,2.310265479419630e-06
	-6.830973426313156e-08,-3.851141627819743e-11
	0.000000000000000e+00,0.000000000000000e+00
	0.000000000000000e+00,0.000000000000000e+00
	-6.730973428393924e+01,1.155146729375289e-03
	9.999999999949019e-01,9.042795874379215e-09
	-7.404074186720030e+02,1.270661979881661e-02
	1.000000000000000e+00,0.000000000000000e+00
	0.000000000000000e+00,0.000000000000000e+00
	2.318225317076142e+01,-3.958842579002469e-04
	-1.964233723851095e-01,-2.681023668846262e-06
	2.318225328558241e+01,-3.900630487988746e-04
	7.043344829358288e-01,-3.757835173944907e-06
	-7.404074186720030e+02,1.270661995289759e-02
	-7.404074186720031e+02,1.270661981239201e-02

 9	1.230268770812381e+00,0.000000000000000e+00
	0.000000000000000e+00,0.000000000000000e+00
	0.000000000000000e+00,0.000000000000000e+00
	7.043344829230928e-01,-3.845659761818332e-06
	7.043344829065150e-01,-3.845659947275801e-06
	7.043344829290339e-01,-3.845659748836639e-06
	7.043344832322224e-01,-3.845657430838910e-06
	7.043344836455467e-01,-3.845653610046281e-06
	7.043344830835987e-01,-3.845658583347023e-06
	-2.455371238413884e-12,-6.577111372540128e-14
	-6.138246445468974e-12,-8.206006881411702e-14
	-1.227861025612696e-12,-3.288591559469355e-14
	2.897798227920777e-10,2.811726450486225e-12
	7.244465711685626e-10,7.145653043982463e-12
	1.448900650594202e-10,1.405863529071533e-12
	8.824430270580163e-12,9.988569264357461e-14
	2.206106054885062e-11,2.423587071922273e-13
	4.412230164256139e-12,4.994288776079527e-14
	-1.784488995582205e-08,-1.178204293368278e-10
	-2.743263804601066e-08,-3.149539565731124e-10
	-8.922417096752971e-09,-5.891015449394815e-11
	-1.964335969242590e-08,-7.915502499237324e-11
	-2.833186573843592e-08,-1.989669061228756e-10
	-9.821690703121575e-09,-3.957754237531217e-11
	4.576164669775946e-20,-2.625281961943612e-18
	5.506335064527574e-20,-4.973682767199612e-18
	2.288115721426825e-20,-1.312762278074780e-18
	5.795564479292103e-10,2.361014673341492e-12
	8.693346560603466e-10,2.683953884776829e-12
	8.693346585417765e-10,2.684102750363448e-12
	-2.573152402210311e-12,-1.464427115988650e-07
	0.000000000000000e+00,0.000000000000000e+00
	3.534127670661648e-10,-6.202087757872453e-15
	-1.475938430813270e-01,2.589459532991858e-06
	-1.346195368757529e-01,2.364134540717319e-06
	-6.830973426123818e-08,-3.940847648209456e-11
	0.000000000000000e+00,0.000000000000000e+00
	0.000000000000000e+00,0.000000000000000e+00
	-6.730973428300938e+01,1.182081585892345e-03
	9.999999999949019e-01,8.836956709704075e-09
	-7.404074186617745e+02,1.300290335517954e-02
	1.000000000000000e+00,0.000000000000000e+00
	0.000000000000000e+00,0.000000000000000e+00
	2.318225317044275e+01,-4.051152416391202e-04
	-1.964233723857166e-01,-2.743390927420676e-06
	2.318225328526845e+01,-3.991584391592150e-04
	7.043344829349751e-01,-3.845659735855048e-06
	-7.404074186617745e+02,1.300290351284953e-02
	-7.404074186617746e+02,1.300290336907114e-02

 10	1.258925411794167e+00,0.000000000000000e+00
	0.000000000000000e+00,0.000000000000000e+00
	0.000000000000000e+00,0.000000000000000e+00
	7.043344829221991e-01,-3.935523344024623e-06
	7.043344829056214e-01,-3.935523533801945e-06
	7.043344829281403e-01,-3.935523330740549e-06
	7.043344832313287e-01,-3.935520958749841e-06
	7.043344836446532e-01,-3.935517048959686e-06
	7.043344830827051e-01,-3.935522138103256e-06
	-2.455371195179165e-12,-6.730311877060188e-14
	-6.138246391564885e-12,-8.397149086560979e-14
	-1.227861003995104e-12,-3.365192647316400e-14
	2.897798251355622e-10,2.877219855013155e-12
	7.244465770002581e-10,7.312096390228298e-12
	1.448900662311633e-10,1.438610238412009e-12
	8.824430297700914e-12,1.022123257196454e-13
	2.206106061200629e-11,2.480039577090100e-13
	4.412230177816538e-12,5.110620526406303e-14
	-1.784489005354682e-08,-1.205648124233967e-10
	-2.743263830689906e-08,-3.222901654828135e-10
	-8.922417145615311e-09,-6.028234463560063e-11
	-1.964335975797266e-08,-8.099877438262518e-11
	-2.833186590319781e-08,-2.036014291975102e-10
	-9.821690735894979e-09,-4.049941776640796e-11
	4.791832556899091e-20,-2.686432673215520e-18
	5.765840433976665e-20,-5.089534768186769e-18
	2.395951238442446e-20,-1.343340459083500e-18
	5.795564498470406e-10,2.416009533992784e-12
	8.693346582580988e-10,2.746470848044573e-12
	8.693346607213304e-10,2.746623181156478e-12
	-2.694482328227793e-12,-1.498538005475410e-07
	0.000000000000000e+00,0.000000000000000e+00
	3.534185497896080e-10,-6.809675158866602e-15
	-1.475938430791938e-01,2.649835863506885e-06
	-1.346195368738053e-01,2.419257097017055e-06
	-6.830973425925553e-08,-4.032685296806449e-11
	0.000000000000000e+00,0.000000000000000e+00
	0.000000000000000e+00,0.000000000000000e+00
	-6.730973428203561e+01,1.209643197711402e-03
	9.999999999949019e-01,8.635803016447365e-09
	-7.404074186510630e+02,1.330608122299823e-02
	1.000000000000000e+00,0.000000000000000e+00
	0.000000000000000e+00,0.000000000000000e+00
	2.318225317010905e+01,-4.145610228409176e-04
	-1.964233723863519e-01,-2.807212768175118e-06
	2.318225328493967e+01,-4.084654686069648e-04
	7.043344829340815e-01,-3.935523317456581e-06
	-7.404074186510630e+02,1.330608138434083e-02
	-7.404074186510632e+02,1.330608123721341e-02

 11	1.288249551693134e+00,0.000000000000000e+00
	0.000000000000000e+00,0.000000000000000e+00
	0.000000000000000e+00,0.000000000000000e+00
	7.043344829212634e-01,-4.027473592796562e-06
	7.043344829046857e-01,-4.027473786994359e-06
	7.043344829272046e-01,-4.027473579203065e-06
	7.043344832303932e-01,-4.027471151961714e-06
	7.043344836437175e-01,-4.027467151101013e-06
	7.043344830817695e-01,-4.027472358785742e-06
	-2.455371149906860e-12,-6.887080882025734e-14
	-6.138246335120383e-12,-8.592743571307920e-14
	-1.227860981358707e-12,-3.443578004849672e-14
	2.897798275894920e-10,2.944238799587805e-12
	7.244465831067936e-10,7.482416706757462e-12
	1.448900674581289e-10,1.472119717941190e-12
	8.824430326099823e-12,1.045931531237383e-13
	2.206106067813840e-11,2.537807032068599e-13
	4.412230192016019e-12,5.229661995382515e-14
	-1.784489015587724e-08,-1.233731205692119e-10
	-2.743263858008278e-08,-3.297972569038287e-10
	-8.922417196780472e-09,-6.168649727422770e-11
	-1.964335982660856e-08,-8.288547039508990e-11
	-2.833186607572472e-08,-2.083439044446113e-10
	-9.821690770212951e-09,-4.144276648482145e-11
	5.017664558396868e-20,-2.749007770307821e-18
	6.037575914691257e-20,-5.208085312277431e-18
	2.508868886799987e-20,-1.374630898813824e-18
	5.795564518552556e-10,2.472285394875434e-12
	8.693346605594282e-10,2.810444026506087e-12
	8.693346630036036e-10,2.810599907912341e-12
	-2.821530357489849e-12,-1.533443439646123e-07
	0.000000000000000e+00,0.000000000000000e+00
	3.534245144184060e-10,-5.578974558731330e-15
	-1.475938430769601e-01,2.711617172067860e-06
	-1.346195368717661e-01,2.475662377290894e-06
	-6.830973425717946e-08,-4.126476937926782e-11
	0.000000000000000e+00,0.000000000000000e+00
	0.000000000000000e+00,0.000000000000000e+00
	-6.730973428101601e+01,1.237846178363759e-03
	9.999999999949020e-01,8.439228140258345e-09
	-7.404074186398474e+02,1.361631415119005e-02
	1.000000000000000e+00,0.000000000000000e+00
	0.000000000000000e+00,0.000000000000000e+00
	2.318225316975963e+01,-4.242266097838247e-04
	-1.964233723870173e-01,-2.872523030294135e-06
	2.318225328459541e+01,-4.179890718522936e-04
	7.043344829331458e-01,-4.027473565609675e-06
	-7.404074186398474e+02,1.361631431629079e-02
	-7.404074186398475e+02,1.361631416573634e-02

 12	1.318256738556407e+00,0.000000000000000e+00
	0.000000000000000e+00,0.000000000000000e+00
	0.000000000000000e+00,0.000000000000000e+00
	7.043344829202836e-01,-4.121559261372860e-06
	7.043344829037057e-01,-4.121559460094098e-06
	7.043344829262246e-01,-4.121559247462733e-06
	7.043344832294132e-01,-4.121556763683786e-06
	7.043344836427377e-01,-4.121552669631228e-06
	7.043344830807894e-01,-4.121557998618298e-06
	-2.455371102500936e-12,-7.047501508438412e-14
	-6.138246276015732e-12,-8.792894042437503e-14
	-1.227860957655489e-12,-3.523789193023355e-14
	2.897798301590717e-10,3.012818818541405e-12
	7.244465895011206e-10,7.656704299655523e-12
	1.448900687429197e-10,1.506409734828533e-12
	8.824430355837131e-12,1.070294372020559e-13
	2.206106074738721e-11,2.596920065927019e-13
	4.412230206884700e-12,5.351476300370660e-14
	-1.784489026303034e-08,-1.262468427764125e-10
	-2.743263886614124e-08,-3.374792111953657e-10