Title: **.subckt opamp_openloop
Date: Thu Apr  1 12:27:33  2021
Plotname: AC Analysis
Flags: complex
No. Variables: 49
No. Points: 1001
Variables:
	0	frequency	frequency grid=3
	1	dcg	notype dims=1
	2	gbw	notype dims=1
	3	v(m.x1.xm1.msky130_fd_pr__pfet_01v8#body)	voltage
	4	v(m.x1.xm1.msky130_fd_pr__pfet_01v8#dbody)	voltage
	5	v(m.x1.xm1.msky130_fd_pr__pfet_01v8#sbody)	voltage
	6	v(m.x1.xm2.msky130_fd_pr__pfet_01v8#body)	voltage
	7	v(m.x1.xm2.msky130_fd_pr__pfet_01v8#dbody)	voltage
	8	v(m.x1.xm2.msky130_fd_pr__pfet_01v8#sbody)	voltage
	9	v(m.x1.xm3.msky130_fd_pr__nfet_01v8#body)	voltage
	10	v(m.x1.xm3.msky130_fd_pr__nfet_01v8#dbody)	voltage
	11	v(m.x1.xm3.msky130_fd_pr__nfet_01v8#sbody)	voltage
	12	v(m.x1.xm4.msky130_fd_pr__nfet_01v8#body)	voltage
	13	v(m.x1.xm4.msky130_fd_pr__nfet_01v8#dbody)	voltage
	14	v(m.x1.xm4.msky130_fd_pr__nfet_01v8#sbody)	voltage
	15	v(m.x1.xm5.msky130_fd_pr__pfet_01v8#body)	voltage
	16	v(m.x1.xm5.msky130_fd_pr__pfet_01v8#dbody)	voltage
	17	v(m.x1.xm5.msky130_fd_pr__pfet_01v8#sbody)	voltage
	18	v(m.x1.xm6.msky130_fd_pr__nfet_01v8#body)	voltage
	19	v(m.x1.xm6.msky130_fd_pr__nfet_01v8#dbody)	voltage
	20	v(m.x1.xm6.msky130_fd_pr__nfet_01v8#sbody)	voltage
	21	v(m.x1.xm7.msky130_fd_pr__pfet_01v8#body)	voltage
	22	v(m.x1.xm7.msky130_fd_pr__pfet_01v8#dbody)	voltage
	23	v(m.x1.xm7.msky130_fd_pr__pfet_01v8#sbody)	voltage
	24	v(m.x1.xm8.msky130_fd_pr__pfet_01v8#body)	voltage
	25	v(m.x1.xm8.msky130_fd_pr__pfet_01v8#dbody)	voltage
	26	v(m.x1.xm8.msky130_fd_pr__pfet_01v8#sbody)	voltage
	27	v(m.x1.xm9.msky130_fd_pr__nfet_01v8#body)	voltage
	28	v(m.x1.xm9.msky130_fd_pr__nfet_01v8#dbody)	voltage
	29	v(m.x1.xm9.msky130_fd_pr__nfet_01v8#sbody)	voltage
	30	v(net1)	voltage
	31	pm	notype dims=1
	32	i(v1)	current
	33	i(v2)	current
	34	i(v3)	current
	35	i(v4)	current
	36	v(vcm)	voltage
	37	v(vdd)	voltage
	38	v(ve)	voltage
	39	v(vin)	voltage
	40	v(vout)	voltage
	41	v(vsen)	voltage
	42	v(vss)	voltage
	43	v(x1.net1)	voltage
	44	v(x1.vbn)	voltage
	45	v(x1.voe1)	voltage
	46	v(x1.vp)	voltage
	47	v(x1.xc1.a)	voltage
	48	v(x1.xc1.b1)	voltage
Values:
 0	1.000000000000000e+00,0.000000000000000e+00
	6.166431000000000e+01,0.0
	7.911481000000000e+07,0.0
	7.297184312617941e-01,-5.374148673467016e-06
	7.297184312443294e-01,-5.374148846175567e-06
	7.297184312680864e-01,-5.374148654214493e-06
	7.297184317386537e-01,-5.374145306451296e-06
	7.297184323708208e-01,-5.374139988790076e-06
	7.297184315065162e-01,-5.374146970706714e-06
	-2.757181814248241e-12,-6.959059703777374e-14
	-6.892556875760272e-12,-9.429698746351250e-14
	-1.378768830243753e-12,-3.479569685841901e-14
	4.413011617778055e-10,4.679185954124506e-12
	1.103198210598562e-09,1.179895139140681e-11
	2.206507071860843e-10,2.339593246680889e-12
	9.367295920070386e-12,1.175373549683588e-13
	2.341820336546824e-11,2.508017846311730e-13
	4.683683998594006e-12,5.876876730795286e-14
	-2.380599807484987e-08,-2.197525142965587e-10
	-4.218298887022130e-08,-5.748684321843199e-10
	-1.190295762414382e-08,-1.098761590799500e-10
	-2.856026948293476e-08,-1.194939709417927e-10
	-4.456011201412175e-08,-2.999483977258342e-10
	-1.428014943977437e-08,-5.974702196183642e-11
	6.925082050955057e-20,-6.759361512662366e-18
	8.538186631428703e-20,-9.800564402499235e-18
	3.462591034549095e-20,-3.379882154458858e-18
	8.825474570842760e-10,3.642024909431034e-12
	1.323821150003027e-09,4.247971305124678e-12
	1.323821170984331e-09,4.248553156507090e-12
	-5.479168173126118e-12,-2.568370329505971e-07
	1.086394000000000e+00,0.0
	1.362575524831789e-09,-2.890658413574959e-14
	-1.959018177429269e-01,4.173845782371520e-06
	-2.202180122533681e-01,4.695773984400201e-06
	-1.111089505436235e-07,-3.076294774473354e-11
	0.000000000000000e+00,0.000000000000000e+00
	0.000000000000000e+00,0.000000000000000e+00
	-1.101089505722089e+02,2.347895368281510e-03
	9.999999999951039e-01,1.768353870077062e-08
	-1.211199011839051e+03,2.582686079048504e-02
	1.000000000000000e+00,0.000000000000000e+00
	0.000000000000000e+00,0.000000000000000e+00
	3.530189368231691e+01,-7.646272133965267e-04
	-2.205597305642294e-01,-4.663999801772192e-06
	3.530189458609647e+01,-7.413522778392977e-04
	7.297184312743786e-01,-5.374148634962063e-06
	-1.211199011839051e+03,2.582686099969463e-02
	-1.211199011839051e+03,2.582686080891757e-02

 1	1.023292992280754e+00,0.000000000000000e+00
	0.000000000000000e+00,0.000000000000000e+00
	0.000000000000000e+00,0.000000000000000e+00
	7.297184312603905e-01,-5.499922980809641e-06
	7.297184312429258e-01,-5.499923157541077e-06
	7.297184312666828e-01,-5.499922961108673e-06
	7.297184317372500e-01,-5.499919535366438e-06
	7.297184323694170e-01,-5.499914093841492e-06
	7.297184315051125e-01,-5.499921238387155e-06
	-2.757181745026192e-12,-7.121156803224793e-14
	-6.892556782046499e-12,-9.649344085162597e-14
	-1.378768795632337e-12,-3.560619163403084e-14
	4.413011664919302e-10,4.788177836923924e-12
	1.103198222325376e-09,1.207378337635684e-11
	2.206507095431478e-10,2.394089194360720e-12
	9.367295962833619e-12,1.202751440410690e-13
	2.341820345367406e-11,2.566436895916119e-13
	4.683684019975673e-12,6.013766393654310e-14
	-2.380599829606217e-08,-2.248711885226444e-10
	-4.218298944850671e-08,-5.882588037700276e-10
	-1.190295773474987e-08,-1.124354939087217e-10
	-2.856026960311887e-08,-1.222773198216140e-10
	-4.456011231580449e-08,-3.069350571410858e-10
	-1.428014949986646e-08,-6.113869725171827e-11
	7.251450549670173e-20,-6.916807339506219e-18
	8.940578153386022e-20,-1.002884896139031e-17
	3.625777640744799e-20,-3.458609759046333e-18
	8.825474607118566e-10,3.726857848681681e-12
	1.323821154296621e-09,4.346918189692197e-12
	1.323821175202515e-09,4.347513594135996e-12
	-5.737607461385715e-12,-2.628195359709090e-07
	0.000000000000000e+00,0.000000000000000e+00
	1.362586591298747e-09,-2.898228252188960e-14
	-1.959018177387443e-01,4.271226687994738e-06
	-2.202180122486631e-01,4.805331964006147e-06
	-1.111089505399516e-07,-3.147881955101184e-11
	0.000000000000000e+00,0.000000000000000e+00
	0.000000000000000e+00,0.000000000000000e+00
	-1.101089505698564e+02,2.402674552843834e-03
	9.999999999951040e-01,1.728101221603451e-08
	-1.211199011813173e+03,2.642943209456854e-02
	1.000000000000000e+00,0.000000000000000e+00
	0.000000000000000e+00,0.000000000000000e+00
	3.530189368155072e+01,-7.824664200456406e-04
	-2.205597305654423e-01,-4.772458682832528e-06
	3.530189458535369e+01,-7.586493415953868e-04
	7.297184312729750e-01,-5.499922941407802e-06
	-1.211199011813173e+03,2.642943230865124e-02
	-1.211199011813173e+03,2.642943211343042e-02

 2	1.047128548050899e+00,0.000000000000000e+00
	0.000000000000000e+00,0.000000000000000e+00
	0.000000000000000e+00,0.000000000000000e+00
	7.297184312589208e-01,-5.628613420108541e-06
	7.297184312414560e-01,-5.628613600956567e-06
	7.297184312652130e-01,-5.628613399948684e-06
	7.297184317357802e-01,-5.628609894411037e-06
	7.297184323679473e-01,-5.628604326137195e-06
	7.297184315036427e-01,-5.628611637100017e-06
	-2.757181672541809e-12,-7.287029634272615e-14
	-6.892556683916134e-12,-9.874105633937039e-14
	-1.378768759389736e-12,-3.643556528376911e-14
	4.413011714282251e-10,4.899708474981910e-12
	1.103198234604860e-09,1.235501704104443e-11
	2.206507120112964e-10,2.449854519816120e-12
	9.367296007612216e-12,1.230767045871541e-13
	2.341820354603688e-11,2.626216704333050e-13
	4.683684042365025e-12,6.153844635055584e-14
	-2.380599852769991e-08,-2.301090924289537e-10
	-4.218299005404592e-08,-6.019610779588357e-10
	-1.190295785056865e-08,-1.150544435243970e-10
	-2.856026972896711e-08,-1.251255017546902e-10
	-4.456011263170513e-08,-3.140844575857815e-10
	-1.428014956279062e-08,-6.256278908802622e-11
	7.593200321844331e-20,-7.077920555879179e-18
	9.361933803502741e-20,-1.026245095703718e-17
	3.796654994744385e-20,-3.539171167669681e-18
	8.825474645104006e-10,3.813666817287064e-12
	1.323821158792567e-09,4.448169867813359e-12
	1.323821179619498e-09,4.448779141010020e-12
	-6.008226618048483e-12,-2.689413893874909e-07
	0.000000000000000e+00,0.000000000000000e+00
	1.362597850427516e-09,-3.014644505063367e-14
	-1.959018177343648e-01,4.370872254535712e-06
	-2.202180122437365e-01,4.917437793142753e-06
	-1.111089505361068e-07,-3.221245492568414e-11
	0.000000000000000e+00,0.000000000000000e+00
	0.000000000000000e+00,0.000000000000000e+00
	-1.101089505673931e+02,2.458727667252402e-03
	9.999999999951040e-01,1.688764835271659e-08
	-1.211199011786077e+03,2.704601663333032e-02
	1.000000000000000e+00,0.000000000000000e+00
	0.000000000000000e+00,0.000000000000000e+00
	3.530189368074846e+01,-8.007205007462568e-04
	-2.205597305667124e-01,-4.883447984650333e-06
	3.530189458457595e+01,-7.763486512727752e-04
	7.297184312715052e-01,-5.628613379788926e-06
	-1.211199011786077e+03,2.704601685239965e-02
	-1.211199011786077e+03,2.704601665263155e-02

 3	1.071519305237606e+00,0.000000000000000e+00
	0.000000000000000e+00,0.000000000000000e+00
	0.000000000000000e+00,0.000000000000000e+00
	7.297184312573818e-01,-5.760288224737454e-06
	7.297184312399171e-01,-5.760288409797958e-06
	7.297184312636741e-01,-5.760288204108018e-06
	7.297184317342413e-01,-5.760284616916275e-06
	7.297184323664083e-01,-5.760278918941165e-06
	7.297184315021038e-01,-5.760286400197516e-06
	-2.757181596641338e-12,-7.456766144891708e-14
	-6.892556581161017e-12,-1.010410256422316e-13
	-1.378768721439071e-12,-3.728425755252225e-14
	4.413011765971602e-10,5.013837003318350e-12
	1.103198247463057e-09,1.264280149927945e-11
	2.206507145957651e-10,2.506918790560440e-12
	9.367296054501170e-12,1.259435220310967e-13
	2.341820364275264e-11,2.687388967608188e-13
	4.683684065809558e-12,6.297185726336757e-14
	-2.380599877025438e-08,-2.354690032214367e-10
	-4.218299068812328e-08,-6.159825198778037e-10
	-1.190295797184578e-08,-1.177343965287115e-10
	-2.856026986074638e-08,-1.280400268847645e-10
	-4.456011296249366e-08,-3.214003897666257e-10
	-1.428014962868029e-08,-6.402005254309306e-11
	7.951056264561377e-20,-7.242786586621968e-18
	9.803147333602279e-20,-1.050149424890285e-17
	3.975585550324548e-20,-3.621609095294523e-18
	8.825474684879638e-10,3.902497842510852e-12
	1.323821163500399e-09,4.551780024467493e-12
	1.323821184244645e-09,4.552403489461895e-12
	-6.291599662626559e-12,-2.752058390880184e-07
	0.000000000000000e+00,0.000000000000000e+00
	1.362610070955650e-09,-3.112252636367168e-14
	-1.959018177297787e-01,4.472835315392154e-06
	-2.202180122385775e-01,5.032150913080976e-06
	-1.111089505320806e-07,-3.296296569033075e-11
	0.000000000000000e+00,0.000000000000000e+00
	0.000000000000000e+00,0.000000000000000e+00
	-1.101089505648136e+02,2.516084431610069e-03
	9.999999999951039e-01,1.650323854408973e-08
	-1.211199011757702e+03,2.767694132805040e-02
	1.000000000000000e+00,0.000000000000000e+00
	0.000000000000000e+00,0.000000000000000e+00
	3.530189367990835e+01,-8.193991340534687e-04
	-2.205597305680421e-01,-4.997026555222031e-06
	3.530189458376152e+01,-7.944595912796207e-04
	7.297184312699663e-01,-5.760288183478683e-06
	-1.211199011757702e+03,2.767694155222252e-02
	-1.211199011757703e+03,2.767694134780122e-02

 4	1.096478196143185e+00,0.000000000000000e+00
	0.000000000000000e+00,0.000000000000000e+00
	0.000000000000000e+00,0.000000000000000e+00
	7.297184312557703e-01,-5.895017210420088e-06
	7.297184312383056e-01,-5.895017399791193e-06
	7.297184312620626e-01,-5.895017189310136e-06
	7.297184317326297e-01,-5.895013518562321e-06
	7.297184323647967e-01,-5.895007687864802e-06
	7.297184315004922e-01,-5.895015343381342e-06
	-2.757181517163790e-12,-7.630456331627016e-14
	-6.892556473563204e-12,-1.033945682343814e-13
	-1.378768681699848e-12,-3.815271842816634e-14
	4.413011820096997e-10,5.130623934388907e-12
	1.103198260927242e-09,1.293728933818909e-11
	2.206507173020361e-10,2.565312262824997e-12
	9.367296103599928e-12,1.288771163974504e-13
	2.341820374402647e-11,2.749986120085197e-13
	4.683684090358996e-12,6.443865668841673e-14
	-2.380599902424009e-08,-2.409537627957080e-10
	-4.218299135208379e-08,-6.303305638809431e-10
	-1.190295809883853e-08,-1.204767738682042e-10
	-2.856026999873622e-08,-1.310224405316204e-10
	-4.456011330887180e-08,-3.288867326876515e-10
	-1.428014969767526e-08,-6.551126027728241e-11
	8.325777438252087e-20,-7.411492846401565e-18
	1.026515461673366e-19,-1.074610558154000e-17
	4.162948843182156e-20,-3.705967251858893e-18
	8.825474726529836e-10,3.993398023737869e-12
	1.323821168430104e-09,4.657803595130428e-12
	1.323821189087769e-09,4.658441582492139e-12
	-6.588327667338161e-12,-2.816162065666022e-07
	0.000000000000000e+00,0.000000000000000e+00
	1.362622451214652e-09,-3.151309335493170e-14
	-1.959018177249766e-01,4.577169932727925e-06
	-2.202180122331755e-01,5.149532146632614e-06
	-1.111089505278648e-07,-3.373035184495166e-11
	0.000000000000000e+00,0.000000000000000e+00
	0.000000000000000e+00,0.000000000000000e+00
	-1.101089505621126e+02,2.574775257232140e-03
	9.999999999951040e-01,1.612757897098514e-08
	-1.211199011727991e+03,2.832254070334919e-02
	1.000000000000000e+00,0.000000000000000e+00
	0.000000000000000e+00,0.000000000000000e+00
	3.530189367902865e+01,-8.385122236257773e-04
	-2.205597305694345e-01,-5.113254615408588e-06
	3.530189458290872e+01,-8.129917642759255e-04
	7.297184312683547e-01,-5.895017168200288e-06
	-1.211199011727991e+03,2.832254093274294e-02
	-1.211199011727992e+03,2.832254072356006e-02

 5	1.122018454301963e+00,0.000000000000000e+00
	0.000000000000000e+00,0.000000000000000e+00
	0.000000000000000e+00,0.000000000000000e+00
	7.297184312540825e-01,-6.032871812247326e-06
	7.297184312366178e-01,-6.032872006029437e-06
	7.297184312603748e-01,-6.032871790645664e-06
	7.297184317309420e-01,-6.032868034395498e-06
	7.297184323631090e-01,-6.032862067884057e-06
	7.297184314988044e-01,-6.032869901719842e-06
	-2.757181433940582e-12,-7.808192287314917e-14
	-6.892556360894468e-12,-1.058029319952593e-13
	-1.378768640087774e-12,-3.904140838015466e-14
	4.413011876773244e-10,5.250131190169505e-12
	1.103198275025975e-09,1.323863669912159e-11
	2.206507201358498e-10,2.625065897601322e-12
	9.367296155012637e-12,1.318790431167769e-13
	2.341820385007318e-11,2.814041351602850e-13
	4.683684116065412e-12,6.593962234217281e-14
	-2.380599929019579e-08,-2.465662792438561e-10
	-4.218299204733581e-08,-6.450128174910059e-10
	-1.190295823181627e-08,-1.232830295876218e-10
	-2.856027014322932e-08,-1.340743240104303e-10
	-4.456011367157424e-08,-3.365474557069182e-10
	-1.428014976992185e-08,-6.703720294866334e-11
	8.718158676763063e-20,-7.584128786062043e-18
	1.074893563228366e-19,-1.099641465179567e-17
	4.359142295980325e-20,-3.792290365450041e-18
	8.825474770142953e-10,4.086415557446800e-12
	1.323821173592140e-09,4.766296794901997e-12
	1.323821194159143e-09,4.766949642900555e-12
	-6.899040032062289e-12,-2.881758906848873e-07
	0.000000000000000e+00,0.000000000000000e+00
	1.362635671484869e-09,-3.268785239082774e-14
	-1.959018177199482e-01,4.683931426137460e-06
	-2.202180122275189e-01,5.269643729511151e-06
	-1.111089505234503e-07,-3.451638974638627e-11
	0.000000000000000e+00,0.000000000000000e+00
	0.000000000000000e+00,0.000000000000000e+00
	-1.101089505592843e+02,2.634831262770827e-03
	9.999999999951039e-01,1.576047045372469e-08
	-1.211199011696880e+03,2.898315706455661e-02
	1.000000000000000e+00,0.000000000000000e+00
	0.000000000000000e+00,0.000000000000000e+00
	3.530189367810752e+01,-8.580699034761367e-04
	-2.205597305708928e-01,-5.232193790865386e-06
	3.530189458201573e+01,-8.319549962649895e-04
	7.297184312666669e-01,-6.032871769044109e-06
	-1.211199011696880e+03,2.898315729929363e-02
	-1.211199011696880e+03,2.898315708523825e-02

 6	1.148153621496882e+00,0.000000000000000e+00
	0.000000000000000e+00,0.000000000000000e+00
	0.000000000000000e+00,0.000000000000000e+00
	7.297184312523156e-01,-6.173925122553044e-06
	7.297184312348510e-01,-6.173925320848908e-06
	7.297184312586080e-01,-6.173925100448221e-06
	7.297184317291753e-01,-6.173921256704090e-06
	7.297184323613424e-01,-6.173915151215201e-06
	7.297184314970377e-01,-6.173923167523837e-06
	-2.757181346795183e-12,-7.990068249912038e-14
	-6.892556242915813e-12,-1.082673938712139e-13
	-1.378768596514581e-12,-3.995079860366448e-14
	4.413011936120560e-10,5.372422134988172e-12
	1.103198289789161e-09,1.354700336043438e-11
	2.206507231032170e-10,2.686211377057080e-12
	9.367296208848358e-12,1.349508938503557e-13
	2.341820396111773e-11,2.879588625092730e-13
	4.683684142983336e-12,6.747555005649201e-14
	-2.380599956868558e-08,-2.523095283963521e-10
	-4.218299277535404e-08,-6.600370654330936e-10
	-1.190295837106104e-08,-1.261546516008716e-10
	-2.856027029453217e-08,-1.371972954701892e-10
	-4.456011405137030e-08,-3.443866206411178e-10
	-1.428014984557332e-08,-6.859868963222756e-11
	9.129032273305853e-20,-7.760785940055254e-18
	1.125551654464447e-19,-1.125255417758144e-17
	4.564582061335154e-20,-3.880624206021185e-18
	8.825474815811491e-10,4.181599762764595e-12
	1.323821178997455e-09,4.877317148312018e-12
	1.323821199469524e-09,4.877985203096280e-12
	-7.224395819380232e-12,-2.948883694741739e-07
	0.000000000000000e+00,0.000000000000000e+00
	1.362649506221962e-09,-3.423065071820918e-14
	-1.959018177146827e-01,4.793176401976956e-06
	-2.202180122215956e-01,5.392549346883601e-06
	-1.111089505188276e-07,-3.532107939463458e-11
	0.000000000000000e+00,0.000000000000000e+00
	0.000000000000000e+00,0.000000000000000e+00
	-1.101089505563227e+02,2.696284290714772e-03
	9.999999999951039e-01,1.540171834651331e-08
	-1.211199011664303e+03,2.965914067920694e-02
	1.000000000000000e+00,0.000000000000000e+00
	0.000000000000000e+00,0.000000000000000e+00
	3.530189367714296e+01,-8.780825433451402e-04
	-2.205597305724196e-01,-5.353907144716967e-06
	3.530189458108066e+01,-8.513593418032859e-04
	7.297184312649002e-01,-6.173925078343504e-06
	-1.211199011664303e+03,2.965914091941169e-02
	-1.211199011664303e+03,2.965914070037032e-02

 7	1.174897554939529e+00,0.000000000000000e+00
	0.000000000000000e+00,0.000000000000000e+00
	0.000000000000000e+00,0.000000000000000e+00
	7.297184312504652e-01,-6.318251929668663e-06
	7.297184312330005e-01,-6.318252132583418e-06
	7.297184312567575e-01,-6.318251907048956e-06
	7.297184317273248e-01,-6.318247973772857e-06
	7.297184323594919e-01,-6.318241726069312e-06
	7.297184314951872e-01,-6.318249929101149e-06
	-2.757181255542751e-12,-8.176180652461525e-14
	-6.892556119377000e-12,-1.107892605525578e-13
	-1.378768550887849e-12,-4.088137126943133e-14
	4.413011998264828e-10,5.497561609121666e-12
	1.103198305248114e-09,1.386255282221077e-11
	2.206507262104318e-10,2.748781121334386e-12
	9.367296265221274e-12,1.380942973341040e-13
	2.341820407739563e-11,2.946662694586812e-13
	4.683684171169861e-12,6.904725420057751e-14
	-2.380599986030021e-08,-2.581865553998749e-10
	-4.218299353768271e-08,-6.754112737622233e-10
	-1.190295851686823e-08,-1.290931624799342e-10
	-2.856027045296570e-08,-1.403930107516795e-10
	-4.456011444906562e-08,-3.524083839192040e-10
	-1.428014992479014e-08,-7.019654824887186e-11
	9.559269745862456e-20,-7.941557974976426e-18
	1.178597187984592e-19,-1.151465996824581e-17
	4.779703904531223e-20,-3.971015609660764e-18
	8.825474863632317e-10,4.279001107616119e-12
	1.323821184657514e-09,4.990923519820566e-12
	1.323821205030174e-09,4.991607135602239e-12
	-7.565085152535705e-12,-3.017572019795167e-07
	0.000000000000000e+00,0.000000000000000e+00
	1.362663822425644e-09,-3.482748045632356e-14
	-1.959018177091690e-01,4.904962783377828e-06
	-2.202180122153933e-01,5.518314166249069e-06
	-1.111089505139873e-07,-3.614353261127690e-11
	0.000000000000000e+00,0.000000000000000e+00
	0.000000000000000e+00,0.000000000000000e+00
	-1.101089505532215e+02,2.759166924272366e-03
	9.999999999951039e-01,1.505113243423510e-08
	-1.211199011630190e+03,3.035084996275539e-02
	1.000000000000000e+00,0.000000000000000e+00
	0.000000000000000e+00,0.000000000000000e+00
	3.530189367613293e+01,-8.985607541991974e-04
	-2.205597305740185e-01,-5.478459210993948e-06
	3.530189458010151e+01,-8.712150893315228e-04
	7.297184312630497e-01,-6.318251884429359e-06
	-1.211199011630190e+03,3.035085020855523e-02
	-1.211199011630190e+03,3.035084998441173e-02

 8	1.202264434617413e+00,0.000000000000000e+00
	0.000000000000000e+00,0.000000000000000e+00
	0.000000000000000e+00,0.000000000000000e+00
	7.297184312485280e-01,-6.465928757576864e-06
	7.297184312310632e-01,-6.465928965218098e-06
	7.297184312548202e-01,-6.465928734430280e-06
	7.297184317253874e-01,-6.465924709536737e-06
	7.297184323575545e-01,-6.465918316305921e-06
	7.297184314932499e-01,-6.465926710410314e-06
	-2.757181159989719e-12,-8.366628174223052e-14
	-6.892555990015972e-12,-1.133698691663910e-13
	-1.378768503110793e-12,-4.183361977940197e-14
	4.413012063337866e-10,5.625615963174613e-12
	1.103198321435626e-09,1.418545239294974e-11
	2.206507294640851e-10,2.812808305739376e-12
	9.367296324250965e-12,1.413109202421545e-13
	2.341820419915356e-11,3.015299123644528e-13
	4.683684200684778e-12,7.065556811276935e-14
	-2.380600016565820e-08,-2.642004763318875e-10
	-4.218299433593883e-08,-6.911435940870332e-10
	-1.190295866954710e-08,-1.321001202621506e-10
	-2.856027061886597e-08,-1.436631642654186e-10
	-4.456011486550374e-08,-3.606169987861846e-10
	-1.428015000774033e-08,-7.183162600437245e-11
	1.000978368579175e-19,-8.126540739230447e-18
	1.234142680476921e-19,-1.178287099658574e-17
	5.004964127838158e-20,-4.063512503427049e-18
	8.825474913706871e-10,4.378671235482927e-12
	1.323821190584324e-09,5.107176145028690e-12
	1.323821210852890e-09,5.107875684270145e-12
	-7.921830679278690e-12,-3.087860301467760e-07
	0.000000000000000e+00,0.000000000000000e+00
	1.362678967347288e-09,-3.670711073055172e-14
	-1.959018177033956e-01,5.019349840958294e-06
	-2.202180122088986e-01,5.647004867550046e-06
	-1.111089505089187e-07,-3.698641393157232e-11
	0.000000000000000e+00,0.000000000000000e+00
	0.000000000000000e+00,0.000000000000000e+00
	-1.101089505499742e+02,2.823512504647781e-03
	9.999999999951038e-01,1.470852683159880e-08
	-1.211199011594469e+03,3.105865166861458e-02
	1.000000000000000e+00,0.000000000000000e+00
	0.000000000000000e+00,0.000000000000000e+00
	3.530189367507531e+01,-9.195153938566046e-04
	-2.205597305756925e-01,-5.605916028849780e-06
	3.530189457907622e+01,-8.915327666297073e-04
	7.297184312611124e-01,-6.465928711283809e-06
	-1.211199011594469e+03,3.105865192013983e-02
	-1.211199011594469e+03,3.105865169077536e-02

 9	1.230268770812381e+00,0.000000000000000e+00
	0.000000000000000e+00,0.000000000000000e+00
	0.000000000000000e+00,0.000000000000000e+00
	7.297184312464990e-01,-6.617033906485647e-06
	7.297184312290343e-01,-6.617034118963455e-06
	7.297184312527913e-01,-6.617033882799914e-06
	7.297184317233585e-01,-6.617029764154877e-06
	7.297184323555256e-01,-6.617023222007013e-06
	7.297184314912210e-01,-6.617031811634629e-06
	-2.757181059933418e-12,-8.561511792993946e-14
	-6.892555854558360e-12,-1.160105879855645e-13
	-1.378768453082077e-12,-4.280804902834293e-14
	4.413012131477703e-10,5.756653093259501e-12
	1.103198338386031e-09,1.451587327827519e-11
	2.206507328710786e-10,2.878326878332206e-12
	9.367296386062641e-12,1.446024680705469e-13
	2.341820432664975e-11,3.085534304209018e-13
	4.683684231590688e-12,7.230134454239080e-14
	-2.380600048540729e-08,-2.703544798528231e-10
	-4.218299517181562e-08,-7.072423678918732e-10
	-1.190295882942151e-08,-1.351771192763143e-10
	-2.856027079258490e-08,-1.470094898900587e-10
	-4.456011530156800e-08,-3.690168175582495e-10
	-1.428015009459985e-08,-7.350478983858485e-11
	1.048152969355810e-19,-8.315832313855214e-18
	1.292305951377674e-19,-1.205732947253592e-17
	5.240840538388926e-20,-4.158163930761338e-18
	8.825474966141372e-10,4.480662992785298e-12
	1.323821196790457e-09,5.226136662616107e-12
	1.323821216950023e-09,5.226852496222560e-12
	-8.295389104698202e-12,-3.159785807536265e-07
	0.000000000000000e+00,0.000000000000000e+00
	1.362694823888025e-09,-3.587091048347872e-14
	-1.959018176973502e-01,5.136398224249446e-06
	-2.202180122020979e-01,5.778689688298353e-06
	-1.111089505036113e-07,-3.784617064184204e-11
	0.000000000000000e+00,0.000000000000000e+00
	0.000000000000000e+00,0.000000000000000e+00
	-1.101089505465739e+02,2.889355148718925e-03
	9.999999999951040e-01,1.437371988457899e-08
	-1.211199011557065e+03,3.178292108261205e-02
	1.000000000000000e+00,0.000000000000000e+00
	0.000000000000000e+00,0.000000000000000e+00
	3.530189367396786e+01,-9.409575727445060e-04
	-2.205597305774458e-01,-5.736345177575611e-06
	3.530189457800262e+01,-9.123231463991138e-04
	7.297184312590834e-01,-6.617033859114297e-06
	-1.211199011557065e+03,3.178292133999609e-02
	-1.211199011557065e+03,3.178292110528902e-02

 10	1.258925411794167e+00,0.000000000000000e+00
	0.000000000000000e+00,0.000000000000000e+00
	0.000000000000000e+00,0.000000000000000e+00
	7.297184312443746e-01,-6.771647494344123e-06
	7.297184312269098e-01,-6.771647711771162e-06
	7.297184312506668e-01,-6.771647470106682e-06
	7.297184317212341e-01,-6.771643255526388e-06
	7.297184323534012e-01,-6.771636560992743e-06
	7.297184314890965e-01,-6.771645350697917e-06
	-2.757180955161603e-12,-8.760934838648878e-14
	-6.892555712716817e-12,-1.187128171541561e-13
	-1.378768400695577e-12,-4.380517567154218e-14
	4.413012202828869e-10,5.890742476996061e-12
	1.103198356135284e-09,1.485399067171138e-11
	2.206507364386385e-10,2.945371577926745e-12
	9.367296450787409e-12,1.479706860415060e-13
	2.341820446015465e-11,3.157405475902639e-13
	4.683684263953150e-12,7.398545610188793e-14
	-2.380600082022565e-08,-2.766518288967529e-10
	-4.218299604708602e-08,-7.237161309595686e-10
	-1.190295899683055e-08,-1.383257909880048e-10
	-2.856027097449092e-08,-1.504337618917110e-10
	-4.456011575818328e-08,-3.776122939304239e-10
	-1.428015018555291e-08,-7.521692688510649e-11
	1.097550840568804e-19,-8.509533064528952e-18
	1.353210372782018e-19,-1.233818091857461e-17
	5.487833461672782e-20,-4.255020077493163e-18
	8.825475021047026e-10,4.585030456902109e-12
	1.323821203289074e-09,5.347868147022845e-12
	1.323821223334503e-09,5.348600654539021e-12
	-8.686552796295226e-12,-3.233386673855428e-07
	0.000000000000000e+00,0.000000000000000e+00
	1.362711586800575e-09,-3.719167715304362e-14
	-1.959018176910195e-01,5.256169993852415e-06
	-2.202180121949766e-01,5.913438444654667e-06
	-1.111089504980537e-07,-3.872813181260426e-11
	0.000000000000000e+00,0.000000000000000e+00
	0.000000000000000e+00,0.000000000000000e+00
	-1.101089505430132e+02,2.956729767126650e-03
	9.999999999951039e-01,1.404653407410065e-08
	-1.211199011517898e+03,3.252404222197176e-02
	1.000000000000000e+00,0.000000000000000e+00
	0.000000000000000e+00,0.000000000000000e+00
	3.530189367280819e+01,-9.628986597897849e-04
	-2.205597305792813e-01,-5.869815812431708e-06
	3.530189457687840e+01,-9.335972519741116e-04
	7.297184312569590e-01,-6.771647445869360e-06
	-1.211199011517898e+03,3.252404248535103e-02
	-1.211199011517898e+03,3.252404224517694e-02

 11	1.288249551693134e+00,0.000000000000000e+00
	0.000000000000000e+00,0.000000000000000e+00
	0.000000000000000e+00,0.000000000000000e+00
	7.297184312421504e-01,-6.929851499322110e-06
	7.297184312246857e-01,-6.929851721813665e-06
	7.297184312484427e-01,-6.929851474520111e-06
	7.297184317190100e-01,-6.929847161769935e-06
	7.297184323511771e-01,-6.929840311300978e-06
	7.297184314868724e-01,-6.929849305744127e-06
	-2.757180845452047e-12,-8.965003047926803e-14
	-6.892555564190491e-12,-1.214779894298453e-13
	-1.378768345840179e-12,-4.482552839874683e-14
	4.413012277542716e-10,6.027955210349243e-12
	1.103198374721034e-09,1.519998384757281e-11
	2.206507401743326e-10,3.013977952509565e-12
	9.367296518562570e-12,1.514173600287804e-13
	2.341820459995147e-11,3.230950745771889e-13
	4.683684297840812e-12,7.570879572949977e-14
	-2.380600117082355e-08,-2.830958624014399e-10
	-4.218299696360669e-08,-7.405736178972083e-10
	-1.190295917212935e-08,-1.415478048646137e-10
	-2.856027116496994e-08,-1.539377958646860e-10
	-4.456011623631824e-08,-3.864079853379791e-10
	-1.428015028079248e-08,-7.696894494164710e-11
	1.149276761725447e-19,-8.707745694789187e-18
	1.416985131132804e-19,-1.262557424688625e-17
	5.746466802792729e-20,-4.354132298451364e-18
	8.825475078540313e-10,4.691828964843384e-12
	1.323821210093963e-09,5.472435141892157e-12
	1.323821230019877e-09,5.473184711703525e-12
	-9.096151464700382e-12,-3.308701924578140e-07
	0.000000000000000e+00,0.000000000000000e+00
	1.362728873510241e-09,-3.664973987176199e-14
	-1.959018176843909e-01,5.378728654343760e-06
	-2.202180121875198e-01,6.051322586212365e-06
	-1.111089504922343e-07,-3.962874473018019e-11
	0.000000000000000e+00,0.000000000000000e+00
	0.000000000000000e+00,0.000000000000000e+00
	-1.101089505392848e+02,3.025672082784850e-03
	9.999999999951041e-01,1.372679592191627e-08
	-1.211199011476886e+03,3.328240803892513e-02
	1.000000000000000e+00,0.000000000000000e+00
	0.000000000000000e+00,0.000000000000000e+00
	3.530189367159390e+01,-9.853502884470231e-04
	-2.205597305812036e-01,-6.006398701314474e-06
	3.530189457570123e+01,-9.553663631668842e-04
	7.297184312547349e-01,-6.929851449718233e-06
	-1.211199011476886e+03,3.328240830843929e-02
	-1.211199011476886e+03,3.328240806267083e-02

 12	1.318256738556407e+00,0.000000000000000e+00
	0.000000000000000e+00,0.000000000000000e+00
	0.000000000000000e+00,0.000000000000000e+00
	7.297184312398211e-01,-7.091729803276012e-06
	7.297184312223562e-01,-7.091730030950050e-06
	7.297184312461132e-01,-7.091729777896304e-06
	7.297184317166805e-01,-7.091725364689570e-06
	7.297184323488476e-01,-7.091718354653093e-06
	7.297184314845429e-01,-7.091727558603190e-06
	-2.757180730572041e-12,-9.173824620493927e-14
	-6.892555408664341e-12,-1.243075709435807e-13
	-1.378768288399527e-12,-4.586964821448122e-14
	4.413012355777715e-10,6.168364045325216e-12
	1.103198394182703e-09,1.555403625601792e-11
	2.206507440860843e-10,3.084182378087942e-12
	9.367296589531865e-12,1.549443175045365e-13
	2.341820474633668e-11,3.306209108492270e-13
	4.683684333325543e-12,7.747227716270622e-14
	-2.380600153794460e-08,-2.896899970786840e-10
	-4.218299792332162e-08,-7.578237667673424e-10